/*--------------------------------*- C++ -*----------------------------------*\
| =========                 |                                                 |
| \\      /  F ield         | OpenFOAM: The Open Source CFD Toolbox           |
|  \\    /   O peration     | Version:  v2012                                 |
|   \\  /    A nd           | Website:  www.openfoam.com                      |
|    \\/     M anipulation  |                                                 |
\*---------------------------------------------------------------------------*/
FoamFile
{
    version     2.0;
    format      ascii;
    class       volScalarField;
    location    "1.5";
    object      alphat;
}
// * * * * * * * * * * * * * * * * * * * * * * * * * * * * * * * * * * * * * //

dimensions      [1 -1 -1 0 0 0 0];


internalField   nonuniform List<scalar> 
108993
(
0.000111982
0.00010626
8.38162e-05
0.00011647
0.000116546
6.46728e-05
0.000101449
9.31488e-05
0.000141472
0.000107375
0.000122183
0.000121209
9.79468e-05
9.73211e-05
0.00010325
8.68044e-05
9.11096e-05
0.000104344
9.92203e-05
0.000104553
8.63038e-05
0.000119004
9.34249e-05
0.000115389
0.000115435
0.000104544
0.000418202
0.000111598
0.000124154
7.52505e-05
0.00156532
0.000119952
0.000425626
0.000118064
0.000102986
0.000116466
0.00025448
0.000116052
9.42901e-05
0.000103104
0.000130636
0.000123961
0.000106428
0.00015903
0.000104084
7.68645e-05
0.000403112
0.000102226
0.000133982
0.000113872
0.000127068
0.000128746
0.000108571
0.000125591
0.000119192
0.000122943
0.000151318
0.000108982
9.23979e-05
0.000125227
0.000111375
0.000113872
0.000110209
9.83743e-05
0.000111652
0.000124712
0.000102886
0.000120864
0.000129672
0.000114582
0.000108078
0.000104608
0.000115126
0.000112035
0.000100584
0.000923636
9.33421e-05
0.000132787
0.000146656
0.000112164
0.000105814
0.000100262
9.82321e-05
9.75211e-05
0.000124323
0.000104294
0.000124713
0.000101076
0.000106753
0.000122754
0.000108913
0.00108927
0.000121244
8.95074e-05
0.000117132
0.000114563
0.000855113
8.19222e-05
0.00106536
0.000118425
0.000119169
0.000137839
0.000129556
0.000124252
8.79743e-05
0.000122682
0.00012427
0.000134073
0.000124721
0.000124987
9.71062e-05
0.000108261
0.000106404
0.000112706
0.000114882
9.77617e-05
9.95645e-05
9.30995e-05
0.000129476
0.00137336
0.000109328
0.000107134
0.000104443
7.61702e-05
0.000103556
0.000110918
0.000115005
0.000100791
0.000105773
0.000134287
0.000101864
0.000126315
0.000127186
9.29164e-05
0.000110807
9.42334e-05
0.000107576
9.97944e-05
9.80806e-05
0.000105841
9.79217e-05
0.000174083
0.000106038
0.000109925
0.00012275
0.000113733
9.30738e-05
9.17005e-05
0.000106521
0.000108145
0.000108889
9.1651e-05
9.11687e-05
0.000118412
0.00011369
0.000108021
0.000131974
0.000146888
0.000320393
0.000110937
0.000120227
0.000763286
0.000709599
0.000104197
0.000106564
0.000118191
0.000107274
9.29447e-05
9.17156e-05
0.000128115
0.000119056
0.000117852
0.000118086
9.8973e-05
0.000107756
0.000104954
9.99138e-05
9.94568e-05
0.000120249
9.77814e-05
0.000100319
9.42481e-05
0.000121024
3.72291e-05
0.000130017
0.000114016
0.000123722
0.000113561
0.000113728
4.11964e-05
0.000113708
0.000151034
9.94288e-05
0.00011214
0.000120818
0.000107446
0.00012636
0.000115248
0.000123251
4.5964e-05
0.000119963
0.000119447
8.52079e-05
9.91097e-05
0.000116984
8.37083e-05
0.000116065
0.000114518
0.000108059
8.99488e-05
9.60436e-05
0.000105258
9.40973e-05
0.000103134
8.96926e-05
7.96792e-05
0.000100018
0.000120251
0.000126376
0.000164893
0.000111084
9.75874e-05
0.000120216
0.000106579
0.000100157
8.75166e-05
0.000126467
0.000125491
0.00011827
9.26749e-05
5.8206e-05
0.000113622
9.40092e-05
9.30925e-05
0.000106681
0.000152457
0.000129758
0.000105158
0.00010503
0.000142911
0.000279978
0.00012103
7.46581e-05
0.000137134
0.000137915
0.000105123
0.000111754
0.000107883
0.000161227
0.000127634
0.00108881
0.000115523
0.000110506
0.000118937
0.000123593
0.000161294
0.000120379
0.000108788
0.000580329
7.41354e-05
0.000115399
9.53134e-05
0.000124506
9.27082e-05
3.33592e-05
0.000110874
0.000124755
0.0001293
7.37619e-05
0.000110125
8.08447e-05
8.95017e-05
0.000113867
9.98912e-05
0.000104416
0.000104995
0.000964869
0.000129305
0.000122737
0.000110379
0.000119364
8.80069e-05
7.63566e-05
0.00010138
0.000121791
0.000112575
8.90654e-05
0.000118638
0.000127056
6.59804e-05
0.000108411
0.00010706
0.000122468
0.000142543
0.000111837
9.46341e-05
0.0013192
0.000119903
9.5236e-05
6.63615e-05
9.60036e-05
9.11441e-05
0.000119972
8.8568e-05
0.000117271
9.16246e-05
8.22381e-05
9.71259e-05
8.59664e-05
0.000122862
0.000120776
0.000120917
9.67024e-05
0.00010573
0.000122313
9.8114e-05
7.97911e-05
0.000100247
0.000104632
0.000133827
0.00010577
8.15848e-05
8.14883e-05
7.75808e-05
9.0667e-05
0.000104088
0.00010378
0.000125801
0.000251658
0.000125862
0.000133397
0.000130381
8.22138e-05
0.000138718
0.000106341
0.000103867
0.000112995
0.000116759
0.000115325
0.000106929
0.000109995
0.000105557
0.00010162
0.000118626
0.000102255
0.000105941
0.000100747
9.99286e-05
0.000102558
9.49734e-05
0.000117273
7.8729e-05
7.86064e-05
0.000104853
0.00010347
0.00011041
0.000100607
7.30733e-05
0.000104473
6.58007e-05
0.00013404
0.000100746
8.94712e-05
0.000106081
0.000112955
0.000120469
0.000119128
0.00010877
0.000107226
0.000116992
9.22342e-05
0.00011866
9.68939e-05
0.000109853
0.000136248
0.000115453
0.000122927
0.000149753
9.02154e-05
0.000118167
8.40583e-05
8.79123e-05
0.00012385
9.36704e-05
0.000106323
7.55814e-05
0.000102062
9.14855e-05
0.00010585
0.000123476
8.78766e-05
7.95862e-05
8.62891e-05
9.66646e-05
9.26951e-05
0.000152138
0.000100074
0.000112635
0.000105012
0.000123755
0.000149472
0.000103468
9.13871e-05
0.000113085
0.000115813
8.06387e-05
0.000100838
7.13395e-05
0.000103172
9.13754e-05
0.000103107
9.93925e-05
9.04873e-05
9.84758e-05
0.000113733
0.000164418
0.000112946
0.000101592
6.6075e-05
0.000104176
0.000108975
0.000108092
8.20002e-05
8.60204e-05
0.000119812
7.12626e-05
0.000117479
8.03339e-05
9.21834e-05
7.50189e-05
9.04443e-05
0.000108447
0.000101894
0.000116383
0.000103694
0.000112542
0.000100533
0.000116252
0.000122423
0.000208979
0.000105724
0.000105334
0.000128021
7.59069e-05
0.000116476
0.000122734
9.85496e-05
0.000121985
0.000106624
8.20403e-05
0.000108605
0.000111296
0.000121699
0.000141984
0.000133182
0.000109647
0.000109797
0.000105497
0.000131811
9.8614e-05
6.76443e-05
0.000108712
7.15238e-05
0.000112834
0.000109036
8.57223e-05
9.20999e-05
8.71778e-05
8.03818e-05
9.77835e-05
7.79723e-05
0.000117482
0.00024284
0.000105332
0.00012493
0.000101795
0.000397287
0.000121055
9.82722e-05
0.000118502
0.000100077
0.00189668
0.000252362
0.000118783
0.0001038
9.75176e-05
9.73522e-05
8.92188e-05
0.00010264
0.000123367
0.00011064
0.000121464
9.6903e-05
9.3485e-05
0.000106559
7.7467e-05
9.79803e-05
0.000119289
8.64496e-05
0.000107063
0.000105541
0.00124738
0.000131048
0.000111558
0.000118131
0.000117548
0.000107162
0.000336553
9.80617e-05
0.000109599
0.000117006
0.000102164
0.00146074
0.00012586
0.00011099
0.000110323
9.47339e-05
0.000109942
0.000127363
0.000132462
8.11485e-05
7.94476e-05
0.000112708
0.000116758
0.000126915
0.000103794
0.000105032
0.000116918
0.000105913
0.000125187
8.85463e-05
0.000102969
9.63598e-05
0.000101455
0.000105156
0.000125882
0.000102205
0.000116624
0.000121529
0.000101572
8.87478e-05
0.000110783
0.000108012
0.000125882
0.000125316
0.000107072
8.91884e-05
9.79397e-05
0.000123266
8.99555e-05
9.69071e-05
9.28131e-05
9.19861e-05
0.000132875
0.000122724
8.91267e-05
0.00068971
0.000127438
0.000101994
9.3868e-05
0.000114024
0.00247968
9.84964e-05
0.000118483
7.7463e-05
0.000100005
0.000116987
0.000325901
0.000145805
0.000122075
0.000117148
8.52446e-05
8.24384e-05
8.14785e-05
0.000110437
0.000111011
0.000129579
8.44258e-05
8.81506e-05
0.000111645
0.000125698
0.000102324
0.000127525
0.000138777
0.000117378
9.51079e-05
9.71689e-05
8.17353e-05
0.000124086
8.11635e-05
0.000131682
8.44286e-05
0.000104491
0.000109709
9.42997e-05
0.000102096
0.000160024
8.63855e-05
0.000126213
0.000104959
0.000116115
0.000125483
0.000120252
9.86762e-05
9.5736e-05
7.84781e-05
0.00011572
8.36907e-05
0.000108941
0.000116273
0.000102085
0.000115597
0.000128983
0.000107158
0.000135902
0.000103401
0.000117635
8.37569e-05
9.52023e-05
9.98154e-05
0.00013017
0.000113954
0.00011728
0.000118676
0.000124241
0.000124569
0.00160982
0.000114753
9.74943e-05
0.000114476
0.000118351
0.000109364
0.000116365
9.37002e-05
0.000106103
9.4891e-05
8.54036e-05
0.000126506
0.000103404
0.000119369
0.000104986
0.000117068
0.000104153
9.84173e-05
0.000105634
0.000100012
0.000110623
9.24863e-05
0.000100491
0.000106309
0.000113402
9.42318e-05
0.000104584
6.97544e-05
0.000123693
0.000100476
8.29655e-05
6.10053e-05
0.000106383
6.59867e-05
5.26989e-05
0.00011202
8.53825e-05
0.000144942
9.65563e-05
0.000112979
8.87892e-05
0.000120352
9.01902e-05
9.96492e-05
0.000130585
0.000132946
0.000126149
7.9273e-05
7.2742e-05
0.000131228
9.83471e-05
7.28309e-05
0.00011244
0.000123388
0.000103091
0.000120691
0.000107435
0.000114569
7.07964e-05
0.000150194
0.000130186
7.08636e-05
7.30311e-05
0.000107152
0.000143874
0.000109287
0.000117299
9.05622e-05
0.000111722
9.07474e-05
9.09971e-05
9.42952e-05
8.86155e-05
0.000107848
0.000113679
0.000183331
6.62819e-05
7.07725e-05
0.0001378
7.44516e-05
0.000115733
9.7121e-05
0.000123944
9.85921e-05
0.000113869
0.000117099
0.000112251
0.000122379
0.000104431
8.7505e-05
9.67181e-05
0.000111206
8.41806e-05
0.000120624
0.000122049
0.000116055
0.000140084
9.646e-05
9.83561e-05
0.000116095
0.000120775
8.90668e-05
9.49367e-05
0.000117598
0.000106937
0.000111675
8.91981e-05
9.97711e-05
0.000118492
9.03158e-05
0.000129564
9.21596e-05
0.000116208
0.000133369
9.82418e-05
8.45305e-05
0.000115432
0.000102967
0.000121071
0.000124137
0.00012898
0.000142611
0.00011776
0.000152916
0.000120203
8.25639e-05
9.46119e-05
0.000135748
8.50898e-05
9.77933e-05
8.89341e-05
7.70788e-05
0.000134386
0.00010016
0.000107484
0.000106785
0.000137596
0.000108017
7.48244e-05
0.000120438
0.000119072
9.31514e-05
0.000118744
0.00011646
0.000101999
0.000110207
0.000116373
0.000120565
0.000104032
0.00013397
0.00010849
0.000101051
7.99009e-05
0.000102108
7.47737e-05
9.61265e-05
0.000116493
0.000106938
0.000108577
9.82147e-05
0.000110836
8.86605e-05
0.000116523
7.48929e-05
0.000114975
9.48517e-05
0.000112126
0.000107931
0.000124711
0.00013841
9.92053e-05
0.000122824
8.05877e-05
0.000121603
9.83462e-05
0.000102126
0.000122583
0.000104639
0.000116626
0.00184139
0.000116424
0.000106474
9.52451e-05
9.98758e-05
0.000103731
0.000112801
0.000113764
8.46552e-05
9.16547e-05
0.000103367
8.69914e-05
0.000110402
0.000104968
8.90117e-05
9.64299e-05
8.83138e-05
0.000109301
0.000116914
0.000107643
9.7633e-05
8.53581e-05
9.34962e-05
9.12664e-05
0.000134277
0.000108759
0.000116859
0.000112203
0.000138702
9.84837e-05
8.56198e-05
0.00010494
8.63166e-05
0.00013217
0.000107105
9.02132e-05
0.000126258
0.000102839
0.000132825
0.000111821
0.000112009
0.000109093
0.000121028
5.93867e-05
0.000112902
6.53813e-05
0.000112466
6.1547e-05
0.000117946
0.000112867
6.77993e-05
0.000104204
0.000111819
0.000140227
6.91584e-05
7.74364e-05
0.000102919
0.00010936
7.36036e-05
0.000103875
0.000120309
0.000109412
8.06958e-05
0.000122178
9.76385e-05
9.50074e-05
0.000103452
9.52172e-05
7.16249e-05
0.000105448
9.82893e-05
0.000120248
8.30733e-05
0.000103083
8.45331e-05
6.08766e-05
7.52178e-05
9.4129e-05
0.000111557
0.000100049
7.62402e-05
0.000105931
8.28569e-05
0.000101908
0.000103626
0.00010885
0.000140743
8.55088e-05
0.000100651
0.000104234
9.24993e-05
0.000104435
0.000114368
9.42275e-05
0.000139145
0.00010828
0.000103577
0.000101915
7.50908e-05
0.000122893
0.000111831
8.49404e-05
9.62059e-05
8.629e-05
0.000123071
0.000110131
0.000113897
0.000145092
0.000126634
9.38005e-05
9.21165e-05
9.24949e-05
0.000114794
0.000129641
9.98327e-05
8.88907e-05
0.000122058
0.000103034
0.000125251
0.000144608
0.000124863
8.85682e-05
0.000137013
0.000109269
7.22412e-05
9.33982e-05
8.84652e-05
9.29248e-05
0.000119783
0.000142702
9.6822e-05
0.00010434
9.48768e-05
0.000118421
7.08569e-05
9.0108e-05
0.000101232
0.000103433
0.000102764
0.000111651
9.08445e-05
8.15155e-05
9.27281e-05
0.000125265
0.00010663
0.000113277
0.000117481
9.26404e-05
0.000114067
0.000103076
0.000111449
0.000100765
0.000104777
7.84678e-05
0.000116407
9.78285e-05
9.86999e-05
9.613e-05
0.00012561
7.75861e-05
9.87202e-05
0.000120614
0.000113611
0.000106447
0.000104404
8.12932e-05
0.000109508
8.32246e-05
0.00122008
8.18278e-05
8.75041e-05
0.000962089
0.000117373
0.000132409
8.63778e-05
9.92081e-05
9.73889e-05
0.000101233
8.66239e-05
0.000103763
0.000114552
0.000113911
0.000101764
0.000124102
0.000107643
9.1304e-05
0.000122631
0.000111479
9.02706e-05
9.8582e-05
8.54399e-05
0.000101316
8.3481e-05
0.000115747
8.66764e-05
0.000102927
9.22573e-05
0.000104557
9.68577e-05
0.000111711
0.000146119
0.000106411
9.74989e-05
8.86014e-05
9.90208e-05
0.000109104
0.000109124
0.000121609
6.19978e-05
0.000112952
0.000113322
9.95856e-05
9.93133e-05
0.000111723
8.06319e-05
8.47879e-05
0.000102785
0.00123548
0.000107991
0.00012203
0.000124428
0.000138805
0.000106777
0.000131426
0.000102742
0.000126355
0.000121615
0.000119112
0.000121079
0.000129892
0.000157713
0.000117811
0.000180096
0.00183069
0.000103749
9.26345e-05
0.000112287
0.00011369
0.000124395
0.000111698
0.000166932
9.08271e-05
0.000100518
0.000106335
0.000101045
0.000108165
0.00010336
0.000117908
0.000109361
7.6027e-05
0.000112159
0.000107842
9.92298e-05
7.96739e-05
0.000125229
8.66635e-05
0.000103354
0.000108485
0.000130311
0.000137356
0.000102281
0.000101525
9.1312e-05
9.54244e-05
0.000102537
0.000131536
9.48513e-05
0.000149641
0.000125527
0.000135952
8.55184e-05
7.24352e-05
0.000105575
8.92753e-05
0.000102474
0.000109566
9.43994e-05
9.16974e-05
0.000114725
0.00011728
0.0001207
8.99425e-05
0.000117519
0.000105528
9.26664e-05
0.000107199
0.000122464
0.000119027
7.50758e-05
0.000138503
0.000117703
9.58379e-05
0.000103639
0.00010888
0.00011187
0.000157964
0.000142556
0.000587644
0.000152929
0.000129468
9.17664e-05
8.58966e-05
9.53336e-05
0.000121587
9.07474e-05
0.000125292
0.000105222
7.16275e-05
8.59687e-05
0.000128105
0.000148644
8.66121e-05
0.000114317
0.000127419
0.00010415
0.000102363
0.000108452
7.55022e-05
0.000100718
8.42111e-05
0.000119505
0.000116655
9.902e-05
0.000117673
8.54287e-05
0.000109114
0.000103621
0.000105395
0.000117185
9.98476e-05
0.000119172
7.69256e-05
0.000112601
0.000128899
0.000121189
0.000118569
0.000119942
8.75481e-05
7.10952e-05
0.000115923
0.00013374
9.49431e-05
0.000104197
0.000118286
0.000113811
0.000129818
0.000131817
8.47129e-05
0.000110504
7.52862e-05
0.000479857
9.52577e-05
6.8723e-05
0.000125338
8.3143e-05
9.72378e-05
0.000130719
9.87235e-05
8.1997e-05
9.87733e-05
0.000103429
0.000103956
9.42962e-05
0.000127011
0.00010372
7.78579e-05
9.13135e-05
0.000112568
0.000121009
0.000110838
8.24781e-05
7.94207e-05
8.04069e-05
0.000105
0.000107045
0.000255505
9.70627e-05
0.00013429
9.02839e-05
0.000100857
9.76137e-05
0.000116173
6.44839e-05
9.83458e-05
8.25644e-05
0.000131005
0.000103466
0.00012552
0.000102624
0.000117633
0.00011087
0.000115724
0.000106795
8.32555e-05
0.00100105
7.65608e-05
9.54997e-05
0.00010561
9.81499e-05
0.000114849
9.7625e-05
0.00011811
9.40341e-05
0.000113408
9.448e-05
0.000105102
0.000108283
0.00010217
9.86928e-05
0.000118014
0.000108985
9.49874e-05
0.000102333
7.92702e-05
0.000116618
0.000107332
0.000108497
0.000127645
9.68237e-05
9.14722e-05
0.000119404
9.22285e-05
0.000117565
8.83777e-05
0.000140988
0.000154424
0.000102817
8.88585e-05
0.000103659
0.000150574
0.000177958
0.000129317
0.000111734
9.05082e-05
0.000110191
0.000139629
0.000130295
0.000129684
0.000425508
0.000108102
0.000115543
0.000104731
9.83893e-05
9.55025e-05
0.000115292
0.000129394
0.000120457
8.77512e-05
0.000118132
0.000102643
7.8928e-05
0.000102675
0.000113327
0.000103979
0.000107991
0.000101805
0.000121671
6.82852e-05
5.98915e-05
6.33983e-05
9.57315e-05
6.81514e-05
0.000135693
6.20451e-05
7.583e-05
7.6488e-05
8.42086e-05
0.000105188
9.97506e-05
0.000129115
0.000139835
9.84007e-05
9.22904e-05
0.000163758
0.000108069
0.000102588
0.000127108
0.000128349
0.000132879
9.95788e-05
0.000125567
9.25064e-05
8.98867e-05
0.000113466
0.00011501
4.88225e-05
9.43155e-05
9.961e-05
0.000104972
0.000115468
9.83941e-05
0.000111725
0.000110543
0.000111379
9.07074e-05
0.000108349
9.86175e-05
0.000110812
0.000115613
8.91422e-05
0.000135064
0.000113516
0.000123352
0.000110655
0.000134683
0.000103653
9.79282e-05
0.000123001
0.000134599
8.21971e-05
0.000111799
0.000121684
0.000202263
0.00023735
0.000130287
8.62685e-05
0.000106955
0.000110527
0.000112945
0.000142566
9.68979e-05
0.000120058
0.000116375
0.000109554
0.000122044
0.000119289
8.62342e-05
9.33134e-05
0.000120403
0.000109458
0.000108433
0.00013748
9.28807e-05
0.000100941
9.89001e-05
0.00010955
0.00012113
0.000113884
0.000126256
0.00012579
0.000139134
9.81973e-05
0.00012982
0.00013467
9.80443e-05
0.000119797
8.58057e-05
0.000110603
0.00010441
0.000106933
0.000115834
0.000130331
0.000197685
0.000111159
0.000103696
8.62574e-05
9.93227e-05
0.00011954
0.000110173
0.000107583
9.5934e-05
0.000134086
0.000119045
9.77655e-05
0.000105079
0.00010296
9.94494e-05
0.000113747
9.70693e-05
0.000123543
9.55873e-05
9.78298e-05
0.000109452
0.000118207
0.000102294
9.15813e-05
9.86908e-05
0.00012019
0.000102551
8.91132e-05
0.000135364
0.000126243
0.000119683
9.91829e-05
8.11167e-05
0.000113556
0.000111683
8.75985e-05
0.000523296
8.08554e-05
0.000143559
0.00011279
0.000124515
0.000114889
5.32865e-05
9.9897e-05
8.84015e-05
8.03029e-05
0.000125934
8.48036e-05
7.04956e-05
0.000110646
9.60751e-05
6.88452e-05
8.93683e-05
0.000114786
0.000116674
0.000106836
7.51324e-05
0.000105604
0.00012782
9.74101e-05
0.000109059
0.000101025
0.000113005
9.91972e-05
8.38989e-05
9.68179e-05
0.000124562
0.00011751
7.97778e-05
9.79862e-05
9.66172e-05
0.000130527
9.9489e-05
9.55917e-05
0.000762378
0.000215585
0.000187984
0.0010471
9.18613e-05
0.000100852
0.000102621
9.8628e-05
9.55887e-05
8.29848e-05
0.000101981
0.000109135
8.31198e-05
9.62908e-05
0.000125931
4.8146e-05
0.000103403
0.00012799
0.000119505
0.000135772
0.000115725
0.000102767
0.000101208
9.76543e-05
0.000106546
0.000106093
9.89239e-05
7.98366e-05
0.000114459
0.000102996
0.000131124
0.000119864
0.000119587
0.000114425
0.000104786
0.000100074
0.000103496
9.82895e-05
8.4139e-05
0.000106856
0.000103061
0.000103589
0.000105435
0.00012064
0.000122286
0.000107117
7.18606e-05
0.000113761
9.49456e-05
0.000109032
0.000107114
6.92851e-05
0.000111595
7.36599e-05
0.000100833
9.99396e-05
7.15809e-05
0.000103525
0.000103115
9.78203e-05
0.000108734
0.000123921
0.000118773
0.000129512
9.76725e-05
0.000109535
0.000112202
0.00013954
0.00013051
0.000114286
0.000101909
9.88626e-05
0.000117567
0.000123921
0.000128596
0.000119425
9.33394e-05
0.000125418
0.000104925
0.000103612
0.000128552
8.67224e-05
0.000109594
8.38781e-05
0.000107037
9.52441e-05
8.2862e-05
0.000112263
9.89718e-05
0.000109679
0.000114844
9.28235e-05
8.46905e-05
0.000104034
9.18661e-05
8.95188e-05
8.2839e-05
0.000121103
8.64405e-05
0.000100776
8.645e-05
7.63775e-05
9.49602e-05
6.92352e-05
0.000103343
0.000109671
0.000101959
9.35393e-05
0.00186888
0.000327688
0.000120804
8.72519e-05
0.000108721
9.0796e-05
0.000129062
0.000137178
7.90578e-05
9.40691e-05
0.000110973
7.16014e-05
7.16054e-05
7.91812e-05
0.000113823
0.000107206
0.000110751
9.70928e-05
0.000109735
9.91782e-05
7.81448e-05
0.000113757
7.97683e-05
0.00010835
0.000100488
9.62125e-05
0.000129967
0.000105321
0.000101277
9.0073e-05
7.26463e-05
0.000127109
0.000105875
8.03211e-05
0.000121483
0.000105618
8.09398e-05
8.10839e-05
8.03185e-05
7.20157e-05
0.000103705
9.39298e-05
9.5992e-05
0.000132407
0.000112382
0.000124409
5.74861e-05
0.000101125
9.15504e-05
0.000123574
0.00010161
0.000108759
7.74163e-05
0.000110594
0.000105653
9.616e-05
0.000138422
0.000110668
0.00010472
0.000104696
0.00011796
8.95498e-05
8.08579e-05
0.000128207
0.000110799
0.000105484
0.000111953
0.000117235
7.94024e-05
0.000100533
9.74323e-05
0.000112751
7.22006e-05
0.000104671
0.000110178
0.000117208
0.000119545
0.000108505
6.58481e-05
8.73194e-05
0.000117554
0.000119018
0.000131748
7.5983e-05
0.000118827
8.27675e-05
0.000103413
8.6487e-05
0.000106744
0.000100324
8.24261e-05
0.000114635
9.85039e-05
7.98489e-05
9.51611e-05
0.000103416
9.79642e-05
0.000126945
9.75279e-05
8.80954e-05
9.35585e-05
0.000109798
0.000107748
0.000104969
0.00010224
0.000104827
0.000109397
9.92032e-05
8.70534e-05
9.91403e-05
0.000119705
0.000111916
7.3572e-05
7.81283e-05
8.8089e-05
0.000105181
0.00010043
8.99405e-05
0.000118377
9.19464e-05
0.000119741
7.08108e-05
0.00011572
8.7647e-05
0.000112305
0.000114791
8.95992e-05
9.66789e-05
0.000135141
9.49544e-05
0.000138722
0.000105321
7.12616e-05
0.000115702
0.000123538
0.000109111
9.26568e-05
9.64195e-05
7.74455e-05
0.000119156
9.242e-05
7.89756e-05
0.000104355
9.11203e-05
7.32909e-05
9.98587e-05
0.000102415
8.01484e-05
9.01532e-05
6.49791e-05
7.10352e-05
7.14705e-05
8.63144e-05
0.000101698
0.000109147
0.000108752
8.46204e-05
0.000106415
9.80838e-05
0.000105177
0.000136612
0.000127104
0.000113779
0.000109042
9.51252e-05
8.5348e-05
0.000111374
0.000107383
0.000130743
0.000124679
0.000105011
9.61883e-05
0.000106932
9.14297e-05
0.000103775
0.000104474
0.000110631
6.9629e-05
0.000100067
9.45536e-05
0.000108839
0.000112833
9.97763e-05
9.80377e-05
8.74733e-05
9.56199e-05
0.000104856
8.83812e-05
0.000105172
8.95154e-05
0.00012819
9.15064e-05
0.000102138
0.00011647
0.000117648
0.000106869
0.000213688
9.19851e-05
0.000106957
9.6659e-05
9.74141e-05
7.75303e-05
7.83143e-05
0.000106278
7.70733e-05
7.63671e-05
0.000108712
0.000122614
0.000122772
8.02464e-05
0.000134125
0.000139692
0.000120026
0.000101557
9.42725e-05
0.00011315
9.27688e-05
9.54523e-05
0.000120795
0.000104174
0.000134212
0.00010653
0.000110435
0.000100127
0.000120127
0.000103155
9.91126e-05
0.000117652
0.000109249
0.000103426
0.000105114
0.000106201
0.000105455
0.00010462
9.59794e-05
6.72093e-05
8.4715e-05
0.000124348
9.36437e-05
0.000116182
0.00012259
9.99622e-05
0.000107738
9.25657e-05
0.000115727
9.61948e-05
0.000109885
0.000124747
0.00010848
0.000122636
0.0001036
7.40502e-05
9.17703e-05
0.000107275
7.46201e-05
0.000109392
0.000104637
8.43406e-05
9.26617e-05
0.000119737
0.000117592
0.000144654
0.000102474
0.000135715
5.44466e-05
7.49299e-05
0.000112193
0.000105617
9.71142e-05
0.000107336
0.000119674
0.000100415
7.28076e-05
0.000116264
0.000135885
0.000116903
0.000132192
0.000103378
0.00011142
0.000107602
0.000117996
0.000114044
0.000113329
0.000117342
0.000112802
0.000114299
0.000102584
0.000111884
9.78517e-05
0.000109216
0.000114675
0.000104191
6.8319e-05
8.07672e-05
9.8614e-05
0.000112623
9.93368e-05
0.000108594
0.000104635
0.000962186
6.38361e-05
9.50782e-05
0.000112794
8.28656e-05
9.79548e-05
0.00145222
9.11703e-05
0.000104495
0.00013541
7.35693e-05
8.92012e-05
7.17709e-05
9.35716e-05
0.000124759
0.000120718
9.28796e-05
8.38374e-05
0.000102661
0.000138723
0.000119177
0.000110589
0.000125381
8.69445e-05
0.000110119
0.00142331
7.29485e-05
0.000111178
0.000100205
0.000137827
8.66914e-05
0.000102444
8.04888e-05
0.000936366
0.000118034
0.000110392
0.000137167
9.95509e-05
0.000100851
0.000109829
0.000119625
0.000105372
8.24443e-05
0.000112905
9.94e-05
0.000100264
9.4455e-05
0.000108697
0.000105179
9.33481e-05
8.44474e-05
0.000111738
8.53786e-05
0.000118239
0.000132113
0.000129668
0.000106884
0.000109068
0.000112607
0.000129371
0.000107494
0.00010744
0.000107416
8.28212e-05
0.000100615
0.000110183
9.73502e-05
9.65645e-05
0.000108335
9.3408e-05
9.78448e-05
9.28747e-05
8.24893e-05
9.96663e-05
0.000141759
8.0423e-05
9.87853e-05
9.28871e-05
0.000103663
0.000120589
0.000120979
0.000113506
9.54024e-05
0.000104741
9.76405e-05
9.42882e-05
0.000100219
9.62704e-05
9.21668e-05
0.00010664
0.000114117
9.72555e-05
9.14566e-05
9.30683e-05
0.000101473
0.000116592
9.00873e-05
9.54905e-05
9.14925e-05
9.74714e-05
0.000101269
8.84555e-05
0.000100027
0.00010868
8.36336e-05
9.69703e-05
0.000119834
0.000119492
9.76592e-05
0.000108483
8.89716e-05
6.3098e-05
0.000129703
9.21793e-05
0.000103817
9.35481e-05
0.00010422
0.000134074
0.000109227
0.000125429
0.000135007
0.000105908
0.000100033
0.000108652
8.82108e-05
0.000100433
8.99537e-05
8.33267e-05
8.00855e-05
0.000116208
0.000100976
0.000104095
0.000120231
0.000117687
8.41977e-05
9.57495e-05
9.12965e-05
8.43906e-05
9.99442e-05
0.000113925
9.81106e-05
9.73423e-05
0.000101103
0.000105808
0.000108979
8.52168e-05
9.9396e-05
0.00011706
9.75068e-05
0.000105171
0.000107543
0.000108517
8.0489e-05
0.000101599
0.000133367
9.45081e-05
8.43829e-05
9.39385e-05
0.000103115
8.72826e-05
0.000107945
9.89496e-05
0.000111369
9.78447e-05
8.37123e-05
9.94354e-05
0.000107322
6.09234e-05
9.41765e-05
9.77749e-05
9.77481e-05
8.73778e-05
0.000122948
0.000102685
0.000107927
0.000105262
9.5731e-05
0.000129972
9.52372e-05
9.57584e-05
8.90354e-05
0.000108763
7.64736e-05
0.000131043
9.45964e-05
0.000111066
8.26172e-05
0.000109479
8.6444e-05
9.0638e-05
0.000119983
0.000104385
0.000105875
0.000109692
8.38397e-05
9.03763e-05
0.000134252
8.99355e-05
8.12514e-05
9.70923e-05
0.000111151
0.000107674
0.000105431
0.000109488
0.000108344
0.000106011
9.85531e-05
0.00011506
0.000106316
0.000127376
0.000101868
0.000107049
0.000109195
9.63927e-05
0.000111985
0.000108117
0.000113532
0.000100137
0.000114991
0.000104994
0.000107315
0.000119151
9.82422e-05
0.000100192
0.000107602
0.000151627
8.62209e-05
0.000113519
0.000125059
0.000136328
0.000109009
0.000124023
0.000120034
0.000116197
0.000101899
0.000115436
7.05534e-05
0.000136042
0.000124638
0.00011548
9.98494e-05
0.000108776
0.000126745
8.56358e-05
0.000117759
6.65132e-05
0.000114357
0.000120261
8.14126e-05
0.000102025
9.31851e-05
0.000137858
9.71535e-05
9.84047e-05
5.51429e-05
5.32243e-05
0.000115967
8.14157e-05
6.03355e-05
9.36557e-05
8.79837e-05
8.30889e-05
0.000104922
5.39572e-05
0.000103703
0.000128605
0.000127655
0.000117359
6.39079e-05
0.000102196
8.60787e-05
0.000118663
9.20044e-05
0.00014777
8.5608e-05
0.000102252
0.000119244
7.85163e-05
9.43036e-05
8.75477e-05
8.46735e-05
9.87241e-05
8.30085e-05
0.000108576
0.000131754
0.000133622
7.913e-05
9.03102e-05
8.72211e-05
0.000113679
7.2601e-05
8.18413e-05
0.000102927
0.000107143
0.000116136
0.000124725
0.00010131
0.000143649
0.000105091
0.000114313
0.00011738
0.000101859
0.000103802
0.000118371
9.4979e-05
0.000101442
9.25085e-05
0.000101461
0.000107282
0.00013158
7.88666e-05
0.000116887
9.48107e-05
7.84944e-05
0.000100468
8.01528e-05
7.64634e-05
0.000104532
9.72934e-05
7.94282e-05
0.000100406
9.70702e-05
0.000107897
7.7981e-05
0.000114694
0.000109562
8.20493e-05
0.000120267
0.000112309
9.34584e-05
0.000121875
0.000113371
8.30154e-05
0.000119987
9.82271e-05
8.05905e-05
0.000101716
0.000117424
9.84804e-05
8.0561e-05
0.000120886
0.000111651
0.000109682
0.000115998
0.000109043
0.000109166
0.000123293
8.9675e-05
0.00013055
0.000112694
9.17641e-05
0.000126629
0.000134142
0.000113397
0.000116622
0.000104438
0.000118588
0.000100474
0.00011798
8.64231e-05
0.000103139
0.00011093
0.000111064
0.000110711
0.000111688
0.000120663
0.000113211
7.84067e-05
0.000119463
0.000127223
0.000150466
0.000106542
9.8619e-05
0.000122275
5.88687e-05
9.79603e-05
9.61196e-05
0.000111194
7.83002e-05
0.000111507
0.000129779
9.94378e-05
0.000108873
0.000121198
6.99973e-05
0.000102784
0.000108885
0.000110551
0.00010344
0.000139015
0.000129963
7.25849e-05
0.000145304
0.000125357
6.72351e-05
0.000100869
0.000119674
6.62328e-05
0.000109448
0.000102932
0.000124527
0.000111263
9.05731e-05
0.000101056
7.13314e-05
0.000115728
0.000110893
6.37937e-05
0.000131732
0.000113746
7.25286e-05
0.000117494
0.000111753
0.000137058
0.000107105
0.000720566
0.000110407
0.000102241
7.66805e-05
0.00120664
0.00166989
7.72145e-05
0.000114678
0.000113218
7.28855e-05
9.65931e-05
0.000101372
9.72253e-05
0.000107451
0.000105803
0.000104085
0.000132501
9.99643e-05
0.00011607
0.000110246
6.76653e-05
0.000131703
0.000109993
6.81729e-05
9.24684e-05
7.26238e-05
0.000132071
9.98127e-05
0.000131302
0.00010821
6.31892e-05
0.000123794
6.76589e-05
0.000118729
0.000103117
6.91345e-05
0.000115688
0.000109586
0.000114758
7.40203e-05
0.000120486
0.0001087
6.64849e-05
9.43398e-05
0.0001029
7.32335e-05
6.86012e-05
0.000102444
0.000132593
8.27897e-05
0.000103606
6.58107e-05
9.79644e-05
0.000258595
0.000123272
7.84825e-05
0.000115766
8.68642e-05
7.00414e-05
0.00012469
0.000106359
0.000120459
6.81535e-05
0.000115981
0.000115546
0.000112761
0.000124188
0.000109007
0.000120436
6.55568e-05
0.000101902
0.000133276
7.78359e-05
7.12946e-05
0.000106979
0.000101958
9.97496e-05
0.000120006
0.000458544
6.66693e-05
0.000101649
8.8916e-05
0.000108406
7.09836e-05
0.000240852
0.000213662
0.000106667
0.000367622
0.000105639
6.96779e-05
7.23419e-05
0.000104752
0.000113738
0.00011374
0.00011056
7.55557e-05
0.00012311
0.000113659
0.000120158
0.00010204
0.000103198
0.000137713
0.000135564
0.000118651
0.000113216
8.44762e-05
0.000129894
0.000119517
0.00012385
0.000119511
6.60868e-05
6.4931e-05
9.75202e-05
0.000105539
9.7591e-05
0.000108079
9.03211e-05
0.000104295
9.59539e-05
7.90159e-05
8.05312e-05
9.47031e-05
7.48465e-05
0.000107228
0.000100371
0.000108104
7.97039e-05
0.000102781
0.000111114
9.86742e-05
0.000111442
0.000113735
0.00010437
7.28645e-05
0.000119131
0.000109365
9.69478e-05
0.000132766
6.91895e-05
0.000105548
0.000113953
0.000110246
9.44059e-05
0.000110781
0.000101665
0.000100064
7.88145e-05
0.000100868
0.000123203
0.000117045
8.58071e-05
7.54395e-05
0.000102584
7.43606e-05
8.76128e-05
0.000120647
0.000129581
9.31706e-05
0.000134656
0.000109442
0.000109824
0.000113166
0.000138363
0.000129699
9.06178e-05
0.000106899
0.000117868
9.21291e-05
7.66956e-05
0.000120203
0.000122146
0.000136217
9.63014e-05
0.000111404
0.000123799
0.000101474
0.000104347
0.000107662
0.000105968
0.000116925
9.67082e-05
8.38514e-05
0.00012835
0.000118589
0.000132405
7.41783e-05
0.000107817
0.000145986
0.000104332
7.72732e-05
8.92534e-05
9.06227e-05
0.000104084
7.43056e-05
8.76077e-05
9.89034e-05
7.00269e-05