/*--------------------------------*- C++ -*----------------------------------*\
| =========                 |                                                 |
| \\      /  F ield         | OpenFOAM: The Open Source CFD Toolbox           |
|  \\    /   O peration     | Version:  v2012                                 |
|   \\  /    A nd           | Website:  www.openfoam.com                      |
|    \\/     M anipulation  |                                                 |
\*---------------------------------------------------------------------------*/
FoamFile
{
    version     2.0;
    format      ascii;
    class       volScalarField;
    location    "1.5";
    object      CH4;
}
// * * * * * * * * * * * * * * * * * * * * * * * * * * * * * * * * * * * * * //

dimensions      [0 0 0 0 0 0 0];


internalField   nonuniform List<scalar> 
108993
(
0
1.60215e-246
4.8867e-46
0
6.18571e-71
0
4.11808e-242
1.16583e-97
3.64677e-09
0
0
5.83055e-75
0
0
1.43014e-132
1.59096e-96
0
2.5861e-151
8.37966e-47
0
2.89351e-105
2.42014e-22
6.83463e-281
0
1.25119e-56
0
5.25253e-06
5.43628e-290
0
4.76278e-83
0.00417333
0
1.98659e-07
4.96381e-111
0
0
2.64442e-06
0
0
0
0
3.9866e-27
0
1.83019e-51
0
1.15041e-231
1.68761e-08
0
0
0
1.20249e-10
0
0
1.87822e-11
1.02433e-151
8.66986e-106
7.72868e-11
0
2.93156e-41
5.57399e-53
0
7.79764e-45
0
0
1.71326e-51
0
2.37563e-57
9.94622e-51
0
1.41085e-152
0
0
4.31688e-65
4.90514e-55
2.48519e-298
0.0453997
0
0
1.61528e-15
5.91812e-58
0
0
3.98842e-31
2.05891e-64
4.14492e-151
1.27941e-119
0
0
1.34119e-65
0
0
0.00570409
1.83908e-59
0
0
9.11615e-107
0.00325464
0
0.00385102
0
0
0
2.92054e-108
0
1.52613e-60
3.63321e-60
0
8.92759e-33
1.66305e-33
4.93962e-232
1.79665e-183
6.8322e-57
0
0
4.75124e-32
2.80409e-241
0
6.82047e-46
0
0.00821691
2.25382e-141
0
1.52795e-267
1.29801e-50
0
0
0
6.87674e-68
3.9633e-26
4.24642e-28
1.47311e-96
1.83235e-29
1.53513e-33
1.19589e-158
7.07081e-31
3.61503e-34
3.53787e-27
3.26923e-40
1.6536e-73
0
1.46966e-46
3.47945e-05
0
1.08258e-27
1.66733e-26
2.68119e-69
4.43985e-54
2.06817e-266
1.31329e-48
0
0
0
1.12813e-242
0
2.23412e-30
8.44799e-214
1.0899e-85
0
5.94158e-08
0
0
7.04245e-10
0.0260431
7.89639e-107
0
2.84939e-193
0
0
0
9.91647e-40
4.44417e-46
1.49627e-98
0
3.18872e-53
0
3.60668e-322
9.12378e-184
0
3.982e-31
1.04979e-32
0
5.11198e-26
0
4.92129e-51
1.49599e-113
5.9924e-82
2.87712e-24
0
0
0
1.0793e-58
1.51986e-16
0
0
4.47652e-36
9.22952e-52
1.40131e-260
0
6.26425e-54
2.16339e-49
1.19257e-72
5.64683e-187
2.18174e-109
3.79939e-19
0
0
2.96985e-17
0
3.32016e-30
4.35817e-192
0
0
7.22744e-182
0
1.48276e-191
1.52495e-60
0
1.80637e-11
1.02337e-13
4.74765e-09
1.7359e-319
1.37143e-201
4.33265e-74
7.97595e-188
0
0
9.72914e-15
6.41014e-19
0
4.94066e-324
1.18385e-192
0
0
0
3.61185e-16
3.18871e-15
1.25544e-09
3.65768e-35
0
4.69631e-12
1.40541e-10
1.28857e-19
0
2.11994e-13
0
2.62281e-90
0
1.46691e-262
0
8.47261e-24
0.115994
1.16662e-43
5.328e-15
0
6.47687e-19
0
1.19658e-18
5.70494e-61
0.000177083
0
1.88484e-13
0
0
1.44902e-106
3.37493e-24
0
5.36155e-15
1.48157e-312
0
6.02766e-27
3.17701e-83
1.76918e-37
1.27084e-288
0
0
3.76535e-32
0.000410898
0
0
3.91048e-279
0
5.50171e-228
1.28346e-225
0
2.09466e-17
0
0
0
8.82806e-71
1.99508e-285
5.26645e-141
1.08491e-08
0
7.35992e-09
0
0
0.0288041
8.37974e-12
0
2.74317e-90
0
0
9.84812e-63
0
2.88428e-18
9.88131e-324
0
0
4.39323e-320
0
0
0
0
0
0
1.3548e-221
0
5.82252e-114
0
2.52287e-17
0
0
1.76055e-319
0
0
0
1.78789e-197
0
1.01811e-05
1.37427e-52
5.51723e-320
1.30741e-234
1.73763e-134
5.99423e-10
0
2.98706e-96
5.08114e-25
0
4.63346e-27
1.92964e-17
2.76935e-18
8.25435e-253
0
0
0
0
4.06765e-27
0
1.37595e-26
1.2783e-28
2.31221e-14
0
0
0
0
1.74831e-49
5.48795e-44
4.84774e-253
0
0
5.16856e-80
0
2.09462e-25
8.7588e-25
5.22522e-302
1.91083e-273
1.07916e-21
4.18605e-17
0
5.8388e-188
2.07189e-216
7.05355e-96
2.91761e-27
0
0
0
0
6.72991e-22
0
2.90995e-57
0
3.36242e-222
0
1.37855e-100
0
0
0
8.34162e-156
0
1.65103e-269
0
5.89156e-301
8.73161e-225
0
0
0
1.31941e-191
3.23515e-24
9.55075e-110
5.56812e-10
0
0
5.7943e-270
2.38444e-21
0
8.24188e-304
5.55564e-291
2.47917e-64
1.91652e-53
3.93326e-200
1.15364e-147
4.49592e-285
0
0
1.43236e-90
1.21471e-08
0
2.18845e-155
0
2.82348e-83
6.65369e-197
1.77073e-248
4.5551e-197
0
1.51868e-67
0
2.79984e-89
0
4.29959e-205
6.60411e-86
2.98664e-188
0
4.66466e-191
6.84026e-26
0
0
0
6.86356e-319
0
6.84847e-06
7.21918e-118
6.25799e-18
1.46661e-27
0
0
1.7952e-210
1.55007e-220
1.52344e-175
7.70116e-20
0
0
0
9.01108e-22
0
0
1.47791e-118
0
0
0
4.69728e-28
0
7.44814e-45
0
4.94218e-207
3.883e-142
3.67535e-35
0
0
7.16024e-37
3.84479e-44
7.1484e-167
9.08061e-69
5.47693e-07
3.38244e-229
0
0
0.000255611
0
4.53079e-297
8.15228e-105
6.0729e-53
0.00226793
8.86222e-06
1.01574e-21
8.33356e-66
1.49507e-41
9.38304e-38
3.95861e-39
0
2.35628e-106
0
1.42832e-79
0
5.15406e-44
4.78812e-112
1.60924e-79
3.93951e-65
2.623e-22
2.39536e-26
0
7.77144e-36
0.00124659
0
1.95606e-29
1.81836e-137
2.50192e-224
8.03615e-25
0.000176059
6.75068e-162
4.57489e-25
0
0
0.027124
0
2.50338e-23
3.57502e-19
0
1.54953e-21
0
0
0
0
0
0
0
7.40495e-125
0
4.39831e-28
1.71925e-127
0
0
0
2.71566e-122
0
8.01828e-67
7.78554e-30
0
1.63069e-98
7.5928e-123
0
4.43992e-86
0
5.82987e-86
0
0
1.66874e-27
0
1.20243e-124
2.1511e-44
4.56655e-15
0
0
7.26817e-215
0
0
8.56617e-84
8.43192e-06
0
7.81486e-177
0
7.17722e-102
0.020035
1.10151e-42
1.18241e-233
0
5.9182e-247
4.08864e-97
0.000368854
1.42839e-253
0
0
0
0
0
0
2.71597e-231
0
1.25113e-194
1.15856e-201
0
0
1.026e-83
8.80519e-33
0
3.45901e-97
1.36258e-125
5.86221e-229
0
0
0
0
6.60294e-111
8.15564e-286
3.89925e-25
0
4.50563e-21
1.28612e-09
1.37045e-113
6.8982e-242
2.48162e-135
4.2346e-29
2.70006e-74
0
0
0
2.58317e-118
0
6.76327e-115
1.03886e-102
4.60372e-55
1.85511e-134
6.5614e-59
0
1.20158e-52
0
3.47202e-32
1.99716e-78
2.47451e-116
0
3.75071e-14
1.65268e-171
1.2678e-12
0
6.52849e-263
6.05485e-268
2.67942e-47
0.0018935
0
0
5.01458e-90
0
0
6.02064e-249
1.85384e-172
1.92766e-85
0
6.57388e-110
2.88396e-196
3.85241e-118
0
2.72884e-163
0
2.32953e-25
0
1.31188e-08
2.53488e-87
7.48131e-90
9.14938e-196
0
2.20874e-87
3.01905e-85
0
7.59243e-284
0
0
6.11628e-283
4.53295e-116
2.52102e-222
2.09406e-164
3.03484e-220
0
0
8.09109e-106
5.01104e-07
0
0
1.12369e-309
3.418e-102
0
8.63251e-291
3.66464e-106
0
0
0
0
1.17342e-49
1.72964e-190
0
0
1.18819e-254
0
1.53135e-189
2.76977e-132
0
1.82308e-278
0
1.58511e-153
9.40979e-163
0
0
0
8.73913e-34
0
9.145e-161
0
4.93465e-150
0
0
0
0
9.9176e-199
6.03525e-08
0
0
9.7911e-112
3.04835e-87
1.5652e-141
8.82678e-273
8.61848e-11
0
0
2.99347e-287
0
0
4.61735e-184
2.16742e-63
0
1.86223e-117
0
0
0
1.4999e-81
0
5.72701e-91
1.48665e-136
4.63182e-91
0
0
1.93494e-258
0
0
8.68405e-83
2.69077e-98
2.929e-88
4.02851e-88
7.81085e-87
6.03439e-209
0
2.42216e-35
4.3597e-261
0
7.34925e-92
0
3.65711e-246
2.90183e-79
0
9.20491e-81
1.26976e-79
3.93618e-83
0
4.40405e-91
0
0
3.52798e-76
0
0
0
1.30921e-83
1.97949e-112
0
2.65563e-73
0
3.23249e-76
2.35568e-66
0
0
3.8539e-272
0
0
2.29325e-21
4.01072e-68
0
3.46735e-25
7.85426e-243
0
0
0
0
0
0
5.81875e-32
7.55233e-117
0
2.9629e-72
5.9448e-220
3.85247e-295
2.66654e-209
0
5.39048e-24
1.80283e-157
3.21941e-13
4.42011e-238
6.4121e-14
2.48424e-50
2.37542e-215
1.33037e-99
0
1.55522e-254
0
2.01423e-74
2.49561e-211
1.60213e-108
0
0
1.00388e-101
0.011837
0
0
6.61365e-38
1.39546e-20
2.44498e-56
0
2.29306e-21
4.63256e-154
1.59353e-38
0
2.47033e-322
0
1.48543e-148
4.3122e-320
1.23845e-157
0
1.22985e-129
0
6.87e-190
0
9.88131e-324
0
0
1.17058e-262
0
0
0
7.48295e-52
2.48906e-143
0
6.99019e-59
0
4.84086e-204
5.47446e-61
0
0
0
4.45677e-72
8.81963e-318
6.62012e-142
0
0
5.14636e-184
2.50508e-63
2.65715e-181
8.8456e-69
7.77647e-187
7.12791e-66
0
0
1.53416e-103
0
0
9.83396e-306
7.64787e-309
0
0
0
0
0
1.3956e-78
9.17649e-116
3.02333e-100
1.32387e-104
6.06359e-51
8.26832e-25
1.67907e-106
8.32528e-212
9.25855e-33
0
0
4.75454e-184
0
0
2.57322e-214
4.07269e-206
0
1.95636e-166
5.44374e-252
9.04057e-135
0
2.92536e-134
2.01382e-243
2.08061e-203
1.11683e-36
1.05459e-14
1.67834e-92
4.75859e-118
1.20237e-215
0
0
8.81192e-116
0
0
8.92604e-133
4.90459e-209
0
7.06607e-134
0
0
3.3117e-142
0
2.01716e-291
0
1.02937e-99
0
1.52749e-99
6.21059e-183
4.21107e-138
6.53112e-66
5.39591e-136
2.39016e-108
0
1.77726e-277
7.24883e-131
0
0
0
1.97389e-25
6.75334e-85
9.40544e-280
0
0
0
0
0
3.20655e-168
9.43281e-126
1.04008e-87
0
1.09152e-19
7.60281e-223
2.30841e-106
5.08366e-182
0
2.43444e-269
0
0
1.03914e-189
0
0
0
0
0
0
0
0
0
6.93513e-129
8.86747e-126
1.45118e-239
2.01766e-108
1.2145e-161
0
0
2.90378e-220
4.71266e-254
0
5.22015e-112
0
0
0
0
6.52246e-222
0
0
0
0.00257103
0
0
0.00340346
0
1.78522e-14
0
7.4635e-68
3.95726e-40
1.71685e-65
0
2.99619e-58
2.02847e-63
0
0
0
0
1.36063e-150
5.07139e-41
0
9.07373e-49
2.55167e-302
0
1.08694e-322
0
0
0
1.39529e-301
1.39366e-65
0
0
0
0
0
2.6799e-63
0
0
4.60751e-201
2.18313e-122
5.66028e-194
0
3.20403e-68
5.30731e-66
5.256e-88
6.37438e-93
0
0
0
2.78198e-45
0.00126427
4.22951e-241
0
0
6.98205e-26
0
0
0
0
0
0
1.3452e-26
4.44419e-231
0
0
7.90452e-21
0.0187327
0
8.51849e-97
0
0
3.66711e-111
8.46525e-85
7.43082e-22
1.18921e-231
0
0
0
0
1.25825e-111
7.30092e-112
1.24817e-204
0
0
0
1.11966e-83
9.15995e-186
4.9319e-100
0
0
0
4.82379e-81
0
8.50808e-110
2.56197e-58
1.33901e-110
1.12724e-209
1.82693e-106
4.57707e-117
3.20296e-121
0
0
1.35234e-16
0
0
3.10124e-17
0
1.27122e-61
6.12649e-107
2.65442e-157
0
0
5.76746e-108
0
3.43347e-25
3.67555e-164
0
0
1.36492e-108
4.15977e-63
2.27515e-110
0
0
0
6.20695e-112
1.8175e-58
1.75042e-271
0
1.01148e-50
6.90036e-53
0
2.42759e-38
0
0
1.43588e-163
0
2.70374e-55
0
0
1.06641e-115
0
2.44981e-115
1.42131e-67
2.54828e-61
1.18879e-14
7.0612e-63
1.18918e-60
3.00441e-85
2.65958e-43
0
1.74808e-22
1.94575e-70
7.29711e-118
1.11958e-57
2.09331e-163
0
2.44098e-210
0
9.3038e-59
0
7.5678e-83
0
0
1.48686e-52
0
6.06345e-47
2.90151e-61
1.57262e-162
0
4.10758e-228
5.92879e-323
0
0
0
5.52397e-203
0
0
8.85873e-57
1.36974e-10
0
0
1.42342e-16
8.74113e-313
0.000275258
0
0
5.44964e-19
0
7.80624e-322
5.58348e-115
0
6.66224e-309
0
0
1.2856e-221
0
1.69244e-217
8.8797e-108
0
0
0
0
2.37034e-181
3.55087e-296
2.84275e-300
7.36903e-303
2.4696e-178
2.38161e-195
3.0971e-05
0
2.78201e-37
4.78968e-124
0
1.81707e-297
4.05804e-88
0
3.8568e-66
0
0
1.62191e-54
0
0
3.04942e-113
2.90292e-16
0
2.00754e-116
0
0.0245534
0
2.34809e-76
0
1.81291e-147
0
2.84325e-264
3.26662e-59
0
5.12792e-66
9.978e-162
0
7.17275e-272
0
4.56868e-122
4.30319e-78
0
3.97598e-122
0
0
6.46347e-34
0
0
2.83419e-46
4.89474e-112
0
1.75459e-33
8.61184e-110
0
2.58997e-231
2.49211e-36
4.58224e-12
4.41373e-215
1.09156e-60
7.83321e-259
0
1.10626e-07
0
6.10587e-98
0
0
1.91517e-106
0
1.16903e-206
0
0
0
1.24937e-101
5.28667e-258
0
0
1.09202e-13
0
0
0
0
1.30156e-190
9.82902e-200
0
0
1.15332e-51
2.24962e-110
5.19116e-77
0
0
0
0
1.91144e-293
2.65146e-14
0
0
0
0
0
0
1.99384e-73
1.39651e-07
1.0823e-19
5.06923e-290
1.62315e-20
0
0
5.48776e-137
6.24569e-43
0
0
3.53098e-88
0
0
8.74732e-17
0
0
0
0
8.97127e-201
0
3.25621e-293
5.07987e-315
2.81306e-119
1.48112e-83
8.59344e-256
0
0
3.87114e-81
8.37254e-86
0
0
1.03449e-199
1.24094e-83
5.95493e-149
3.23381e-80
0
1.7434e-164
9.79465e-98
6.67085e-08
0
8.43794e-32
2.06951e-100
1.17355e-06
8.46853e-06
8.87482e-73
0
0
0
0
2.85565e-95
0
4.76358e-265
0
2.25178e-273
1.04481e-12
0
0
0
0
0
5.29073e-259
0
2.33447e-102
0
0
3.21721e-64
5.81838e-116
1.35729e-78
3.30509e-102
5.34511e-97
6.40336e-249
0
2.84643e-19
5.15965e-08
0
5.49498e-122
0
1.27213e-65
3.4504e-65
0
0
1.55153e-125
3.99503e-06
0
0
0
1.89478e-104
1.4352e-61
0
1.10154e-50
7.19595e-249
0
9.36568e-120
0
8.64823e-119
0
0
1.18533e-191
0
8.53445e-123
6.92155e-177
0
2.31495e-52
9.26843e-135
0
5.82128e-121
0
0
0
0
0
6.61276e-134
1.00106e-136
0
0
0
0
0
0.000119733
0
0
0
0
0
0
0
0
5.35263e-170
0
0
9.6386e-121
1.78356e-285
0
0
0
0
0
2.50657e-167
0
0
0
1.84952e-253
1.19614e-176
9.67072e-288
4.85511e-274
0
2.26379e-140
0
2.3627e-205
2.2953e-128
0
3.83884e-85
7.86696e-145
5.4264e-28
0
5.42118e-318
0.439434
1.4622e-12
8.35642e-07
0.014341
0
1.17634e-270
0
1.6806e-280
0
0
1.76728e-317
0
0
0
1.47287e-26
0
5.22427e-145
0
1.79155e-20
2.36036e-292
8.6286e-172
5.95124e-239
0
0
2.12382e-21
0
5.29655e-80
0
1.34251e-206
0
1.46475e-260
0
5.47868e-84
0
3.13977e-208
0
1.13003e-65
0
0
0
1.3588e-198
0
0
0
0
0
0
3.45409e-57
0
0
2.67619e-68
6.51512e-234
2.9206e-53
3.82156e-231
0
5.1565e-113
0
0
2.25668e-130
0
3.35291e-170
1.82669e-21
0
9.11609e-63
6.1562e-23
2.07968e-28
8.66847e-27
0
4.74917e-60
0
3.61121e-123
0
0
0
5.92614e-16
0
5.17136e-208
9.00067e-17
0
0
3.76931e-80
0
1.93306e-279
1.95521e-221
0
2.82228e-42
2.96568e-188
0
0
4.00636e-318
0
0
0
0
0
2.47424e-219
0
1.23619e-317
2.91877e-239
0
3.94316e-240
0
1.35777e-201
4.1988e-270
0
0
0
8.03689e-219
0.00101688
2.51271e-05
0
0
1.40317e-254
2.64041e-225
4.43447e-17
0
2.53964e-274
2.4549e-99
0
2.52746e-106
9.50925e-102
0
0
0
0
1.16182e-225
0
1.01565e-150
0
1.64425e-252
0
6.52051e-277
1.18369e-111
1.37165e-103
0
8.87086e-103
3.04228e-224
2.23812e-104
1.34628e-99
3.06104e-96
0
0
9.03333e-153
1.13432e-212
0
0
2.74763e-179
1.21155e-97
5.39992e-92
7.09508e-300
0
1.20429e-31
1.27421e-117
0
1.13857e-171
2.58894e-193
2.68945e-164
4.79626e-200
0
1.23703e-94
0
0
2.48715e-202
0
0
0
0
0
0
6.13217e-190
0
0
0
7.17278e-67
2.80688e-146
0
0
0
1.12782e-155
4.32015e-221
0
0
0
0
2.75877e-258
5.40781e-227
0
0
0
2.87508e-51
0
1.39647e-280
1.00723e-114
0
1.07137e-27
0
7.1571e-192
1.96094e-297
1.73959e-206
2.47394e-215
2.69397e-277
0
0
8.70389e-197
1.01825e-152
0
2.33941e-138
2.76071e-142
6.72518e-133
3.20015e-162
0
5.62821e-141
2.83573e-125
0
2.3329e-313
3.99586e-242
4.82053e-184
8.62751e-256
0
0
4.31154e-213
0
3.29621e-73
5.86151e-236
0
0
0
0
9.80425e-177
0
4.92289e-79
0
2.25077e-209
1.08685e-252
2.3057e-109
1.77716e-110
0
0
3.39413e-174
0
0
0
0
6.10632e-51
0
2.48797e-189
5.19021e-205
0
8.85549e-115
0
1.29618e-138
0
2.19549e-210
2.33185e-205
0
0
0
0
2.18351e-100
2.50098e-208
0
0
7.60353e-138
1.21988e-197
0
0
0
8.51164e-233
6.53777e-70
0
1.06875e-159
3.26422e-153
0
0
2.34715e-45
2.07591e-27
0
0
0
3.13493e-146
0
0
0
0
0
0
1.00247e-206
3.72848e-144
6.11647e-95
0
0
0
1.65532e-70
0
0
0
1.01492e-126
0
1.88929e-253
0
0
0
1.00896e-175
2.28643e-208
1.55709e-13
3.48583e-136
1.21993e-183
0
0
3.20699e-25
0
1.19762e-141
0
0
2.54833e-163
8.32609e-253
5.95078e-54
0
1.0914e-47
6.55644e-24
0
0
0
2.20455e-244
1.76728e-223
0
8.50121e-274
0
3.77808e-250
1.89141e-299
4.37743e-52
8.16034e-94
4.93317e-77
8.40465e-238
0
5.15821e-78
1.10196e-16
0
8.89524e-87
0
3.675e-89
7.35467e-90
6.45806e-180
6.22262e-283
1.10861e-194
0
4.53443e-230
3.45903e-47
0
5.00472e-92
0
0
0
0
3.14566e-22
5.86911e-12
0
5.15313e-31
3.9986e-245
0
3.38471e-281
2.99531e-281
5.42744e-286
7.58766e-279
0
0
9.28777e-277
0
1.78349e-146
0
5.12022e-283
0
0
0
0
0
0
0
0
1.73553e-260
8.02648e-289
0
9.75425e-68
0
0
1.20788e-251
0
0
0
6.48893e-213
4.99803e-60
0
0
8.29768e-275
1.7497e-84
0
0
1.61131e-61
2.97779e-258
6.11547e-91
0
0
0
3.41791e-82
0
6.66135e-83
3.86218e-23
0.00140429
0
6.21487e-307
0
0
0
0.0023539
0
0
9.93941e-267
9.46427e-125
0
0
0
0
2.05355e-39
3.59472e-220
2.98448e-217
0
8.4383e-34
0
4.90806e-287
3.80451e-32
0
4.61923e-191
0.000966748
0
0
0
0
0
2.1827e-302
1.14102e-87
4.0899e-10
0
1.025e-214
0
0
0
0
1.65723e-242
0
0
8.60725e-253
0
5.68143e-219
1.10431e-277
0
5.43171e-96
0
0
0
1.20796e-91
1.38813e-260
0
4.32827e-61
4.24901e-122
0
7.39806e-11
1.71416e-219
4.05964e-16
1.00879e-249
1.68306e-16
0
0
1.21067e-244
0
0
8.38007e-149
0
0
0
0
6.56691e-184
3.02578e-120
0
0
0
2.43909e-206
4.24813e-281
2.99618e-107
1.71022e-144
0
8.88607e-32
1.74568e-258
3.30252e-29
0
6.23135e-300
5.60409e-316
0
2.52538e-283
3.00076e-174
1.42479e-191
0
0
2.63956e-23
0
0
4.31616e-152
0
0
6.49464e-263
0
1.06546e-24
4.42448e-117
0
6.53035e-276
1.29301e-24
6.30624e-163
1.48738e-204
0
0
1.86777e-40
0
0
2.55659e-271
4.84509e-270
0
0
0
2.87617e-36
2.32265e-219
3.37068e-223
5.88309e-230
0
0
7.38221e-208
0
0
1.83181e-34
1.36772e-221
5.80855e-42
2.61885e-42
0
4.35624e-260
3.24629e-163
0
6.52638e-107
0
0
1.03307e-174
4.76673e-207
0
8.0698e-156
0
0
5.96617e-172
0
1.59487e-150
2.86029e-153
0
4.56559e-142
0
6.94306e-175
0
3.40334e-212
1.06818e-106
2.2061e-148
0
0
4.48714e-281
9.67174e-148
0
1.35214e-158
0
8.42598e-242
0
6.86638e-173
1.33959e-284
0
0
2.75495e-100
0
0
2.25603e-187
0
1.87994e-240
0
0
0
0
0
9.02269e-259
0
1.14544e-185
0
0
0
1.21373e-141
0
1.68778e-183
5.12855e-148
6.86304e-101
6.46627e-195
0
0
1.83729e-38
1.43044e-66
0
5.3963e-209
1.59995e-208
1.40578e-138
0
5.25051e-218
0
0
0
0
5.97794e-216
1.59346e-75
0
4.44513e-165
1.12931e-211
5.75949e-222
7.90828e-221
2.67369e-264
0
4.07375e-141
0
0
1.18172e-123
6.44682e-133
2.32061e-213
1.3233e-291
6.02392e-169
5.0275e-294
4.7169e-156
2.88484e-133
0
0
6.2837e-235
0
0
0
0
0
0
0
0
0
8.92104e-117
9.02287e-149
0
0
0
4.36081e-295
0
0
0
0
0
2.13368e-288
0
0
7.00256e-225
0
0
4.11613e-174
0
1.10119e-121
0
0
2.07959e-162
0
0
0
5.78099e-256
5.1957e-115
3.25266e-184
2.26562e-136
0
0
0
0
0
3.42064e-30
0
0
1.29024e-183
5.19695e-265
0
0
0
0
4.65951e-241
0
0
4.7328e-249
0
2.33097e-79
0
0
0
0
0
1.04628e-41
0
0
5.97671e-80
2.75603e-82
1.04485e-79
2.39617e-90
1.23234e-83
1.28432e-133
3.41156e-117
0
0
0
5.94324e-130
0
0
0
3.57463e-240
0
0
0
0
0
3.61782e-142
0
6.22577e-199
0
0
0
0
0
0
2.07801e-248
1.97847e-118
0
1.84847e-89
0
0
6.33354e-120
0
0
7.94309e-260
8.84841e-104
5.8859e-253
0
0
9.77093e-41
1.21651e-130
0
1.411e-79
0
0
1.15218e-252
4.83282e-237
0
7.51847e-129
2.87298e-40
1.65045e-39
3.19803e-243
8.14232e-84
1.53108e-185
4.42659e-30
6.18435e-126
0
1.38168e-27
9.84736e-265
4.04583e-31
2.60509e-219
1.79876e-79
0
1.30454e-84
6.06063e-27
0
6.75662e-30
5.34241e-34
4.18634e-35
0
0
3.26508e-16
2.26123e-172
0
9.78013e-108
0
0
0
9.16493e-92
0
1.03097e-319
0
5.27516e-37
0
1.81673e-128
0
2.3263e-114
5.04012e-45
5.98268e-83
5.38476e-39
8.99101e-108
3.64519e-159
3.02984e-45
4.95892e-52
0
2.49824e-43
0
0
3.1995e-43
0
4.53196e-180
0
1.75525e-41
1.33476e-162
0
0
1.07555e-81
0
2.18901e-38
0
0
0
9.4991e-59
0.000207352
0
0
9.71912e-95
0.000685914
0.005571
0
0
0
0
4.19091e-196
0
0
0
0
6.90521e-275
0
2.72058e-261
1.78424e-43
1.59215e-221
0
2.31715e-42
4.49739e-38
4.06829e-211
0
2.90768e-208
3.27448e-45
0
0
1.42596e-271
7.15567e-241
4.61269e-47
3.23862e-238
0
1.94982e-110
3.3965e-239
0
0
0
4.79525e-236
6.74048e-91
1.34163e-105
2.43164e-242
7.20066e-124
1.25629e-105
2.03449e-235
0
8.86484e-85
0
0
0
0
0
6.53509e-07
8.48446e-123
1.88753e-201
3.9901e-241
0
0
0
4.48849e-263
0
0
0
5.73231e-236
5.25423e-226
3.24906e-85
1.39037e-132
0
0
0
0
0
0
0
0
0
0
4.4245e-05
0
0
6.56873e-215
0
0
2.20933e-05
0
1.03724e-107
1.25201e-07
1.83757e-165
2.61598e-155
3.81514e-160
0
0
4.37223e-133
0
1.44402e-156
4.32013e-89
0
0
0
0
8.18017e-149
2.89549e-61
0
3.46028e-215
0
0
0
0
0
0
1.17434e-161
2.78277e-168
0
0
1.12835e-208
0
1.5797e-212
0
0
1.30813e-148
5.0905e-100
0
1.10577e-192
0
8.48922e-253
0
0
0
0
3.02895e-192
2.52565e-200
0
0
9.69348e-239
0
0
0
0
0
0
0
2.69045e-159
0
1.36293e-110
0
0
0
0
4.97786e-119
0
0
0
6.39595e-33
1.79282e-158
0
0
1.87484e-173
0
1.70636e-63
6.54968e-105
0
0
0
9.9292e-147
3.30476e-31
0
9.07891e-128
3.15914e-28
0
0
0
1.70115e-116
6.88654e-116
1.31321e-192
0
0
2.26013e-202
1.08999e-29
2.99822e-118
0
0
1.34504e-56
0
0
1.14143e-27
4.56432e-137
3.28539e-118
1.87567e-195
2.62358e-26
8.70739e-183
2.65574e-215
0
0
0
0
0
0
5.69629e-186
6.87056e-37
0
0
2.85782e-114
7.36691e-58
0
0
4.42651e-91
5.98766e-60
0
1.10131e-170
1.09618e-149
0
9.35174e-167
0
0
2.40697e-202
0
7.07138e-23
1.88379e-245
0
5.71634e-320
0
4.82226e-269
6.87874e-315
0
6.53105e-83
2.50446e-238
1.25825e-238
0
0
0
0
0
1.28904e-249
7.69961e-91
3.80777e-242
1.13486e-120
0
9.89892e-89
1.4529e-225
0
0
9.42366e-297
0
4.57079e-311
1.99978e-317
0
1.14709e-87
0
5.961e-75
5.78257e-69
6.1336e-79
0
1.203e-77
3.08225e-165
0
1.90936e-262
4.7969e-271
0
0
2.65455e-301
0
2.67757e-181
0
2.38297e-212
8.93652e-170
0
3.7511e-171
0
1.17585e-244
2.26154e-267
0
0
3.50236e-209
0
0
1.04501e-265
0
0
6.80878e-211
4.84672e-152
0
6.69907e-86
0
2.16464e-201
2.12172e-222
0
0
0
1.69043e-237
0
0
0
0
0
3.96708e-216
0
0
0
0
0
4.5266e-65
1.75605e-102
0
0
0
0
4.14825e-62
0
3.54599e-99
3.36258e-249
0
1.85757e-147
0
0
0
0
1.56105e-264
0
0
0
0
2.87974e-65
5.07235e-245
0
1.35715e-235
0
0
3.19084e-26
0
2.50493e-161
4.26741e-120
0
1.76565e-290
0
0
5.18426e-219
5.7352e-220
2.50336e-168
0
0
0
0
0
0
0
0
3.37958e-244
0
0
0
0
0
0
0
0
0
2.93633e-256
0
1.95554e-115
5.4144e-176
0
2.3776e-170
0
1.25094e-213
7.63084e-150
0
5.57309e-148
0
1.49647e-161
0
2.62569e-132
0
0
1.60395e-116
0
9.16506e-205
2.08989e-204
1.61057e-97
0
0
0
1.14129e-89
0
0
0
0
2.66359e-63
0
5.82735e-158
0
0
6.82109e-46
0
1.66481e-52
0
0
0
2.89436e-186
0
1.55561e-254
0
1.50674e-29
0
0
6.20647e-20
3.81882e-92
3.95942e-18
0
0
0
0
0
2.29691e-266
5.99698e-22
0
0
9.60272e-109
0
9.8986e-112
0
1.12542e-25
2.12719e-160
6.29771e-17
8.04889e-23
0
0
0
4.51298e-157
3.13714e-64
1.72374e-32
2.25133e-107
0
1.50776e-154
3.98413e-175
6.01682e-162
2.01831e-275
0
1.02998e-297
9.97691e-167
0
0
2.58858e-158
0
7.10198e-267
3.46234e-33
0
4.19498e-84
4.00365e-35
1.56228e-26
3.04351e-79
0
3.80816e-183
3.51037e-27
2.28651e-217
0
3.87551e-229
1.57632e-162
1.31303e-29
1.85552e-278
0
0
1.89011e-233
0
2.9009e-314
5.28687e-30
0
1.9107e-183
4.77709e-249
7.98606e-121
1.99523e-196
2.95268e-159
1.20772e-201
7.93525e-94
0
3.24646e-223
0
0
0
1.42397e-209
1.61295e-172
0
1.0969e-210
1.40789e-284
0
0
0
4.94066e-324
4.82686e-310
6.78765e-194
2.96618e-252
0
0
1.30331e-248
6.32132e-252
0
2.8492e-254
0
0
1.71026e-71
0
5.18075e-173
2.44783e-228
0
2.19692e-83
4.2764e-171
2.96537e-237
3.02144e-202
5.44423e-229
7.90816e-234
8.9562e-139
0
0
0
1.22765e-217
2.12477e-197
0
0
5.78976e-235
0
0
0
0
0
0
0
3.78919e-221
7.56493e-200
0
4.50156e-199
0
8.22856e-236
2.55764e-169
0
3.39339e-177
0
0
0
1.33486e-232
2.27872e-125
0
0
7.01833e-142
2.6287e-224
1.68964e-151
0
1.24686e-221
0
0
3.67556e-254
1.43038e-101
1.01995e-236
4.19335e-107
6.487e-38
1.79718e-84
3.9795e-256
0
0
0
2.33066e-78
0
9.90614e-254
5.87816e-251
0
2.46019e-24
0
7.74744e-231
0
0
0
0
0
0
0
0
1.16984e-58
0
0
6.41381e-27
0
0
0
0
0
0
1.12906e-40
6.81393e-33
0
4.82915e-96
6.42279e-100
0
4.09283e-198
0
7.34726e-23
3.40121e-272
0
1.26796e-233
0
3.30943e-19
4.77408e-268
0
4.63417e-18
2.41145e-35
9.02313e-237
0
0
0
0
3.98773e-316
3.49602e-30
4.46846e-250
0
1.29783e-42
0
1.81525e-24
1.28884e-07
0
9.60339e-139
1.24462e-264
7.0521e-55
0
3.93723e-40
0
6.27485e-39
4.93285e-107
6.60555e-246
7.07637e-154
0
1.70962e-319
5.58294e-322
2.47033e-323
1.93992e-199
0
0
0
3.7849e-17
2.34974e-96
0
1.45173e-34
1.07535e-36
1.8518e-89
3.37864e-313
0
1.18557e-196
0
0
0
0
3.84577e-46
0
4.30376e-13
0
0
0
9.33301e-46
2.19011e-192
0
2.28082e-104
1.56354e-25
0
2.85058e-53
2.42516e-74
0
1.4105e-97
1.92948e-152
0
2.39703e-104
1.94637e-205
0
6.68354e-193
0
0
0
0
1.35494e-41
3.93137e-77
1.72231e-320
3.64422e-276
0
0
8.50281e-274
3.13043e-81
2.49228e-28
0
0
0
7.93119e-296
0
0
5.38361e-28
2.82653e-48
2.64706e-271
3.64483e-278
2.61154e-275
2.6944e-212
4.12516e-224
0
1.89847e-221
0
0
4.77438e-272
9.50384e-58
0
0
2.90944e-254
0
0
1.45514e-52
0
1.91536e-213
7.50042e-213
0
0
0
0
0
0
0
0
3.12855e-53
0
0
0
0
0
8.90971e-155
0
3.23947e-169
6.06281e-140
0
0
0
0
0
5.53491e-297
0
0
0
0
0
2.77943e-201
6.8305e-176
0
2.9467e-313
0
1.55939e-278
2.44344e-252
6.62454e-223
0
4.94522e-258
0
0
0
0
0
8.47378e-220
2.31135e-129
0
2.65634e-20
0
0
7.91241e-98
8.7994e-81
0
0
1.55659e-17
1.94038e-18
5.20889e-120
0
6.50231e-15
0
0
7.12763e-17
0
2.40404e-28
0
0
0
0
1.43382e-120
0
1.3891e-26
1.46485e-217
0
0
0
3.61195e-133
0
1.21371e-282
2.14907e-291
1.322e-30
0
0
0
0
1.82185e-230
0
4.04516e-259
0
0
0
0
0
0
1.74314e-258
2.64489e-27
0
0
8.29137e-220
0
1.64816e-55
3.70121e-309
0
8.85458e-124
0
0
0
0
0
3.44802e-275
0
0
0
3.7617e-179
0
0
3.02023e-267
1.17114e-317
0
8.94031e-215
0
0
5.87956e-304
1.82895e-266
0
0
1.71209e-17
1.89647e-06
2.59326e-293
0
1.25748e-228
0
0
2.05366e-152
0
0
0
6.19245e-08
2.3937e-182
0
0
4.04366e-07
0
0
0
6.53485e-201
1.12745e-249
6.5847e-264
0
0
8.9419e-220
0
1.70234e-189
0
6.52696e-241
0
1.84525e-256
2.21328e-227
2.30749e-232
0
0
0
8.36184e-62
0
0
8.25821e-96
1.87891e-255
1.33156e-248
0
3.96686e-256
5.95837e-26
2.86319e-157
0
0
1.34449e-264
7.54733e-211
6.43449e-215
6.69518e-198
0
0
2.1143e-216
9.36226e-18
0
0
1.62775e-16
1.9626e-14
2.48491e-79
0
3.9403e-257
0
0
6.02382e-236
2.10351e-237
8.33873e-211
0
7.38219e-291
0
1.05531e-243
0
0
0
0
5.34567e-93
0
8.28949e-192
3.73146e-257
0
0
4.49199e-80
0
2.27792e-173
8.84001e-269
0
2.38786e-63
4.17185e-90
8.36881e-61
6.34997e-216
3.7038e-05
1.30159e-184
0
4.27428e-44
0
0
1.66039e-70
2.02313e-281
0
1.02373e-213
1.26793e-85
0
0
0
0
0
0
2.71223e-287
5.55039e-264
0
0
1.62374e-200
9.37763e-93
0
0
0
3.87488e-104
1.35984e-102
3.46399e-314
2.2385e-81
0
2.11458e-136
1.00413e-270
2.81623e-280
0
0
1.11759e-133
4.73953e-32
0
1.55333e-317
2.24094e-105
1.03835e-135
5.09769e-237
0
2.82939e-133
1.07019e-182
2.28783e-200
0
1.34251e-212
0
2.11733e-219
2.70643e-140
6.12677e-184
0
1.01224e-132
4.70295e-101
1.07631e-107
7.55115e-19
0
2.1234e-163
2.76969e-283
3.09682e-266
1.42716e-20
0
1.86466e-266
0
1.5443e-209
0
2.20292e-135
3.48837e-139
2.53265e-195
3.8544e-143
1.3892e-137
3.15909e-38
0
0
0
0
0
0
1.27499e-20
2.26974e-284
0
0
0
6.57876e-175
8.0598e-182
0
0
1.32186e-285
8.71777e-21
3.40563e-19
0
5.77416e-84
0
6.93746e-86
1.4573e-168
0
0
6.206e-130
0
0
0
3.48664e-227
2.81583e-130
0
0
0
1.08435e-151
4.53341e-165
0
1.96688e-305
0
1.16089e-162
0
7.36539e-144
0
6.76485e-133
1.37341e-136
0
1.74146e-252
0
0
5.50306e-316
2.28181e-132
4.72704e-176
6.91185e-190
0
3.20622e-132
0
1.71339e-175
2.20071e-80
0
0
0
0
0
0
0
8.84981e-152
0
3.92248e-81
1.25222e-170
1.15868e-134
1.4806e-83
0
0
3.71533e-221
0
0
1.23656e-147
1.69161e-79
0
0
0
7.12809e-82
0
1.46263e-243
1.03744e-243
7.37365e-231
0
0
0
0
0
7.56629e-309
0
0
0
4.22931e-295
0
0
0
0
2.44734e-91
1.43389e-300
5.68661e-82
9.74937e-292
0
7.7132e-126
0
0
1.90064e-178
5.01162e-314
1.97626e-323
2.70406e-298
0
0
0
1.48064e-262
0
0
0
0
2.5858e-150
5.54525e-289
0
0
0
2.85023e-284
0
1.87095e-239
0
0
4.60147e-196
8.86429e-255
4.03416e-186
0
3.95919e-299
0
0
0
0
0
4.42211e-153
1.68095e-212
1.79017e-305
0
8.79943e-252
2.05595e-269
0
0
0
0
0
7.91055e-301
0
0
1.64552e-140
1.32349e-197
3.73336e-247
0
2.12553e-180
0
3.71626e-309
1.82448e-177
0
0
3.69224e-206
7.54225e-255
0
0
9.1024e-274
1.64675e-10
0
0
5.08003e-159
0
0
0
0
2.73089e-258
0
0
0
0
0
3.47804e-131
1.89377e-161
0
4.50642e-303
0
3.45568e-161
1.37772e-163
0
0
0
2.78546e-308
1.55303e-286
0
3.25259e-254
0
0
1.36835e-165
0
0
1.93775e-163
1.8068e-133
0
0
1.0323e-145
0
0
0
1.72733e-144
3.3233e-187
0
0
5.29868e-261
0
3.03873e-296
0
0
0
0
0
7.00165e-241
0
0
0
1.8376e-246
0
0
0
1.42089e-262
0
2.68433e-302
0
0
0
4.08764e-184
0
0
0
0
0
0
9.34503e-242
0
0
0
1.38021e-218
0
0
0
3.08304e-296
1.90864e-136
0
0
3.54475e-132
0
3.56404e-81
0
0
0
0
0
0
0
0
0
0
0
0
0
1.56824e-50
0
0
2.20044e-317
0
6.24233e-56
1.67696e-75
5.41265e-301
0
0
0
1.22924e-54
5.53436e-15
0
0
5.64478e-271
3.23259e-284
0
0
0
0
0
0
0
4.74302e-68
0
0
0
1.03265e-130
0
1.76482e-127
4.92396e-128
3.96568e-281
1.93101e-35
0
0
0
0.00125921
0
0
0
0
9.23056e-81
0
3.89164e-296
0
0
1.89344e-247
0
0
0
1.315e-80
0
0
0
2.32926e-65
0
4.27415e-136
0
1.98191e-138
0
6.57107e-321
1.08783e-142
0
3.0156e-250
1.9036e-256
0
7.4052e-247
0
4.59824e-48
1.72178e-248
0
1.80128e-140
0
0
0
4.09384e-65
0
0
2.24217e-160
0
0
0
4.81598e-19
0
0
0
0
0
1.63753e-313
0.00182162
1.1348e-164
0
2.52481e-256
0
0
0
0
0
0
5.59263e-123
2.7891e-243
1.161e-250
0
0
0
0
4.67521e-248
0
2.16104e-244
1.64885e-125
7.91044e-311
0
5.70425e-258
5.16902e-198
0
6.68087e-265
0
0
1.69665e-105
3.10725e-291
7.18667e-110
0
3.05635e-157
0
0
2.308e-107
2.28882e-160
1.48804e-290
0
0
5.32707e-319
2.64184e-105
0
0
1.78855e-156
0
0
0
3.27241e-17
0
0
0
2.19823e-270
1.46567e-284
2.16658e-256
0
0
0
0
2.9282e-137
8.23669e-172
0
0
1.12547e-270
1.64184e-257
0
5.18098e-185
0
0
2.28827e-58
1.66885e-118
0
1.44191e-255
0
0
0
0
1.40777e-283
0
5.27069e-258
4.98738e-265
0
1.14954e-120
1.37136e-121
0
0
0
1.07422e-56
9.80096e-256
0
0
1.00457e-300
0
2.10267e-287
0
0
0
2.73073e-220
0
0
2.14488e-278
0
4.11343e-288
0
0
5.50084e-293
5.11989e-210
1.21309e-268
4.95761e-135
0
8.07797e-132
0
0
4.92075e-292
1.25147e-270
0
0
0
0
0
2.02985e-147
5.33818e-53
0
6.69216e-53
0
0
0
8.20895e-231
0
5.01353e-55
5.79435e-51
2.16849e-301
2.06102e-235
6.98385e-233
0
2.74498e-236
0
0
2.6516e-254
1.96621e-289
0
0
3.19214e-271
3.18741e-233
0
0
9.98739e-308
1.38165e-221
0
0
0
0
0
0
0
0
0
0
0
0
0
0
0
0
1.08489e-287
1.28221e-266
0
4.49241e-302
0
1.761e-319
9.0454e-157
1.87152e-173
2.1929e-162
5.09627e-141
1.2789e-138
1.29625e-128
1.37156e-150
0
0
0
0
0
0
4.62833e-278
1.53475e-163
0
0
0
8.29247e-139
6.03826e-143
0
0
0
0
0
1.43046e-282
0
0
0
0
0
0
0
0
0
1.0913e-294
0
2.51133e-292
8.76775e-303
0
0
0
9.16841e-217
2.86021e-88
0
9.07169e-133
0
0
8.70434e-263
0
1.09578e-130
0
8.29723e-254
7.59561e-148
0
0
1.13929e-151
0
0
0
0
0
7.23161e-156
0
2.66416e-278
0
1.71086e-291
0
1.09245e-84
1.71488e-168
0
0
0
2.91404e-171
0
1.35562e-126
1.00905e-87
0
7.42262e-314
0
9.69334e-295
0
0
0
4.27677e-242
0
0
0
1.19677e-124
1.26996e-275
0
1.24939e-286
1.52686e-237
2.2538e-310
0
5.09597e-272
5.3247e-243
0
0
8.33388e-228
0
2.88998e-90
1.09821e-165
0
0
4.72865e-205
9.60654e-127
4.41486e-279
2.96263e-134
0
0
0
1.10308e-130
5.10307e-278
0
0
2.43687e-245
1.56925e-133
1.25529e-302
0
3.04995e-47
3.56481e-70
2.18601e-268
5.28079e-31
6.13549e-24
0
2.27421e-228
2.7182e-70
1.47698e-66
2.9545e-132
3.56024e-131
2.49578e-121
0
3.38803e-213
0
6.99538e-131
3.02206e-36
7.8283e-99
0
1.67979e-05
0
3.08554e-76
2.20923e-77
0
0
0
2.60098e-164
8.7331e-307
4.61141e-85
2.46065e-67
0
0
0
3.41026e-98
3.80262e-303
0
0
1.9425e-279
3.19023e-67
9.35995e-117
1.0246e-313
0
0
2.73055e-151
0
0
0
3.58877e-310
5.58077e-131
0
0
0
6.99158e-94
0
0
2.23529e-116
0
9.57217e-307
0
0
5.63373e-155
0
5.74319e-88
0
6.27959e-215
0
0
0
0
2.89642e-22
0
0
8.78413e-30
2.00102e-68
0
4.89501e-80
7.48142e-105
9.50753e-19
7.0531e-82
5.18769e-322
0
0
1.27849e-34
3.76314e-38
8.67472e-124
0
2.08939e-59
0
0.0120711
5.38345e-22
0
0
0
0
2.5528e-11
6.31551e-24
0
0
3.64887e-174
1.11816e-128
5.16116e-143
1.48605e-115