/*--------------------------------*- C++ -*----------------------------------*\
| =========                 |                                                 |
| \\      /  F ield         | OpenFOAM: The Open Source CFD Toolbox           |
|  \\    /   O peration     | Version:  v2012                                 |
|   \\  /    A nd           | Website:  www.openfoam.com                      |
|    \\/     M anipulation  |                                                 |
\*---------------------------------------------------------------------------*/
FoamFile
{
    version     2.0;
    format      ascii;
    class       volScalarField;
    location    "1.5";
    object      CO2;
}
// * * * * * * * * * * * * * * * * * * * * * * * * * * * * * * * * * * * * * //

dimensions      [0 0 0 0 0 0 0];


internalField   nonuniform List<scalar> 
108993
(
0
9.27177e-247
3.00535e-46
0
8.26907e-71
0
1.76528e-242
1.42762e-97
9.05001e-09
0
0
1.95589e-75
0
0
4.9335e-133
8.33014e-97
0
1.12958e-151
1.47185e-46
0
1.65863e-105
4.9058e-22
2.22131e-281
0
1.93299e-56
0
1.29501e-05
1.8541e-290
0
7.00251e-83
0.00974686
0
3.8386e-07
2.30339e-111
0
0
5.99076e-06
0
0
0
0
1.8349e-27
0
2.12772e-51
0
2.62728e-232
2.88118e-08
0
0
0
2.35409e-10
0
0
1.59662e-11
3.39176e-152
5.39156e-106
1.52637e-10
0
4.247e-41
8.21176e-53
0
1.39124e-44
0
0
3.1609e-51
0
3.50473e-57
1.53822e-50
0
8.14373e-153
0
0
2.74804e-65
7.25321e-55
5.00837e-299
0.0774588
0
0
2.74966e-15
1.28137e-57
0
0
5.9554e-31
7.84989e-65
1.16578e-151
5.1813e-120
0
0
1.98854e-65
0
0
0.024703
2.30915e-59
0
0
3.87269e-107
0.0120209
0
0.0158912
0
0
0
1.0525e-108
0
1.04183e-60
4.60471e-60
0
1.42683e-32
2.44249e-33
1.2361e-232
6.5591e-184
8.67567e-57
0
0
7.05035e-32
1.10498e-241
0
4.24729e-46
0
0.0307481
1.90683e-141
0
5.17434e-268
8.2822e-51
0
0
0
4.48278e-68
6.04913e-26
8.54063e-28
6.60461e-97
2.66809e-29
2.45741e-33
5.00411e-159
2.89427e-31
1.93034e-34
5.13862e-27
4.01173e-40
2.43851e-73
0
9.74459e-47
1.84533e-05
0
1.79939e-27
3.35799e-26
2.64976e-69
3.19768e-54
5.74578e-267
8.53573e-49
0
0
0
4.47745e-243
0
3.38896e-30
4.6951e-214
6.45826e-86
0
1.41832e-07
0
0
1.5705e-09
0.0349754
4.55135e-107
0
1.11149e-193
0
0
0
1.23558e-39
6.17058e-46
8.07365e-99
0
1.29518e-53
0
1.08694e-322
3.46661e-184
0
5.07593e-31
0
0
8.18669e-26
0
3.21395e-51
5.95077e-114
3.71461e-82
4.52736e-24
6.35903e-123
0
0
0
2.66852e-16
0
0
6.49184e-36
9.15693e-52
4.2948e-261
0
1.23735e-54
1.43454e-49
1.68259e-72
2.29418e-187
1.20911e-109
6.61093e-19
0
0
5.72124e-17
0
3.23617e-30
1.70773e-192
0
0
2.88733e-182
0
6.21073e-192
1.07548e-60
0
4.41329e-11
2.08624e-13
8.43845e-09
5.69757e-320
5.46462e-202
3.4191e-74
3.18291e-188
0
0
1.89686e-14
1.14157e-18
0
4.94066e-324
4.98989e-193
0
0
0
6.31847e-16
0
3.34528e-09
0
0
1.02257e-11
1.68667e-10
2.07278e-19
0
4.39291e-13
0
1.30844e-90
0
5.06976e-263
0
1.52313e-23
0.04093
2.31816e-43
1.12186e-14
0
1.79683e-18
0
2.78512e-18
2.85521e-61
0.000425612
0
3.1947e-13
0
0
6.79219e-107
6.67565e-24
0
4.01388e-15
5.36289e-313
0
6.25643e-27
4.7126e-83
1.11775e-37
4.13464e-289
0
0
5.23777e-32
0.00104012
0
0
1.31341e-279
0
1.31163e-227
5.86631e-224
0
4.32272e-17
0
0
0
8.36459e-71
5.98193e-286
2.86147e-141
1.99294e-08
0
1.14493e-08
0
0
0.073093
1.24675e-11
0
3.50391e-90
0
0
7.28762e-63
0
4.96674e-18
0
0
0
1.57903e-320
0
0
0
0
0
0
5.28997e-222
0
2.18636e-114
0
4.43048e-17
0
0
3.00392e-320
0
0
0
7.15744e-198
0
2.87736e-05
1.29919e-52
9.74297e-321
5.53774e-235
7.67952e-135
1.3877e-09
0
1.62793e-96
2.01264e-25
0
5.98405e-27
3.59981e-17
4.73472e-18
3.27103e-253
0
0
0
0
2.85594e-27
0
5.26041e-27
8.56173e-29
1.90915e-14
0
0
0
0
3.91655e-50
4.98558e-44
2.82142e-254
0
0
2.49983e-80
0
1.40188e-25
5.70208e-25
1.17414e-302
6.83885e-274
7.90743e-22
9.2299e-17
0
2.36747e-188
8.55271e-217
8.22007e-97
1.89622e-27
0
0
0
0
1.04184e-21
0
2.05819e-57
0
1.30819e-222
0
5.81657e-101
0
0
0
3.70764e-156
0
6.05313e-270
0
1.15851e-301
3.61755e-225
0
0
0
4.60291e-192
4.84422e-24
5.91643e-110
1.39383e-09
0
0
1.99615e-270
2.36008e-21
0
1.80741e-304
1.97558e-291
1.64137e-64
2.20683e-53
1.4096e-200
3.39388e-148
1.31421e-285
0
0
5.0132e-91
2.87177e-08
0
1.04282e-155
0
3.82233e-83
2.49448e-197
7.13541e-249
1.59692e-197
0
2.47385e-67
0
1.70602e-89
0
1.58711e-205
9.69938e-86
1.08926e-188
0
1.70801e-191
9.34334e-26
0
0
0
2.21084e-319
0
1.64015e-05
1.48238e-118
1.36358e-17
2.56938e-27
0
0
6.82278e-211
5.81679e-221
5.07273e-176
1.57905e-19
0
0
0
1.5477e-21
0
0
8.10964e-119
0
0
0
4.63363e-28
0
4.42467e-45
0
1.99927e-207
2.76967e-141
2.3496e-35
0
0
4.53257e-37
2.02478e-44
3.07833e-167
1.21716e-68
1.42645e-06
1.32044e-229
0
0
0.000231275
0
1.56239e-297
4.71071e-105
4.83308e-53
0.00723034
2.28216e-05
6.63982e-22
4.01546e-66
6.1556e-42
5.91933e-38
1.87663e-39
0
1.12639e-106
0
1.50626e-79
0
2.39683e-44
2.0713e-112
2.36601e-79
1.86959e-65
1.68529e-22
1.99628e-26
0
7.62654e-36
0.00369896
0
1.28214e-29
6.5978e-138
1.02181e-224
5.43108e-25
0.000191961
2.99989e-162
3.08917e-25
0
0
0.0685914
0
2.48817e-23
6.36103e-19
0
1.78726e-21
0
0
0
0
0
0
0
3.10525e-125
0
4.19172e-28
8.03548e-128
0
0
0
9.89115e-123
0
4.46405e-67
4.24111e-30
0
5.70447e-99
4.28913e-123
0
2.15521e-87
0
8.54853e-86
0
0
2.16854e-27
0
4.94936e-125
2.70303e-44
7.55566e-15
0
0
1.23478e-215
0
0
6.73141e-85
4.39916e-06
2.21817e-251
3.20721e-177
0
1.78444e-101
0.0439932
4.56934e-43
4.40276e-234
0
2.91803e-247
1.97295e-97
0.000393026
4.93646e-254
0
0
0
0
0
0
1.61347e-231
0
7.17653e-195
4.54835e-202
0
0
8.13732e-84
1.44451e-32
0
0
6.00629e-126
1.35292e-229
0
0
0
0
4.88815e-111
2.30722e-286
4.24874e-25
0
8.5665e-21
2.99383e-09
5.75283e-114
2.87847e-242
2.38603e-135
4.83676e-29
1.07795e-74
0
0
0
1.90517e-118
0
5.23164e-115
1.13928e-102
2.4615e-55
8.32917e-135
3.78125e-59
0
6.43144e-53
0
1.51338e-32
9.81534e-79
2.82521e-116
0
5.69884e-14
8.56947e-172
2.07893e-12
0
2.82005e-263
3.48631e-270
4.15342e-47
0.00631758
0
0
2.54904e-90
0
0
2.19806e-249
7.48089e-173
7.30391e-86
0
4.02521e-110
9.8485e-197
1.67859e-118
0
0
0
2.81188e-25
0
2.64441e-08
1.11309e-87
1.16807e-90
3.36391e-196
0
1.12554e-87
1.5413e-85
0
2.50117e-284
0
0
9.1046e-284
2.46903e-116
7.04908e-223
1.22162e-164
8.52251e-221
5.85957e-229
0
5.9022e-106
1.20387e-06
0
0
3.01372e-310
1.43398e-102
0
2.96828e-291
1.58328e-106
0
0
0
0
1.691e-49
7.81102e-191
0
0
3.30932e-255
0
8.89964e-190
8.77708e-132
0
6.80858e-279
0
5.94877e-154
0
0
0
0
1.12721e-33
0
0
1.13875e-315
2.34312e-150
0
0
0
0
1.69141e-199
5.52898e-08
0
0
4.06078e-112
2.27858e-87
6.22999e-142
3.1259e-273
3.97016e-11
0
0
1.0741e-287
1.34148e-195
0
2.07818e-184
3.23516e-63
0
8.6253e-118
0
0
0
7.71288e-82
0
2.85423e-91
7.99162e-137
2.26405e-91
0
0
7.63089e-259
0
0
4.44503e-83
1.40859e-98
1.46437e-88
1.55876e-88
8.60705e-87
3.45673e-209
0
1.16475e-35
1.33334e-261
0
3.77364e-92
0
1.24364e-246
2.19013e-79
0
7.27816e-81
6.21184e-80
2.9773e-83
0
2.3543e-91
0
0
2.4484e-76
0
0
0
7.00662e-84
8.40087e-113
0
1.4228e-73
0
1.93185e-76
1.73474e-66
0
0
5.35828e-273
0
0
4.42518e-21
2.93754e-68
0
4.63943e-25
3.09996e-243
0
0
0
0
0
0
4.13234e-32
3.51919e-117
0
1.24306e-72
2.88531e-220
2.10684e-295
7.46576e-210
0
8.02592e-24
9.10715e-158
5.45687e-13
9.29438e-239
2.57331e-14
1.50513e-50
6.15619e-216
1.21208e-99
0
5.57393e-255
0
2.92366e-74
2.08901e-211
6.67418e-109
0
0
4.3129e-102
0.0469073
0
0
1.09088e-37
2.3052e-20
1.18681e-56
0
0
2.86397e-154
1.24373e-38
0
6.42285e-323
0
6.43826e-149
1.80828e-320
5.29893e-158
0
9.195e-130
0
3.06515e-190
0
4.94066e-324
3.79617e-142
0
2.08517e-263
0
0
0
4.61296e-52
1.27574e-143
0
2.39963e-59
0
1.17403e-203
9.14203e-62
0
0
0
3.04212e-72
3.58484e-318
3.58881e-142
0
0
2.05006e-184
1.91165e-63
1.0875e-181
6.9633e-69
3.22066e-187
5.26916e-66
0
0
8.03259e-104
0
0
3.03201e-306
2.46331e-309
0
0
0
0
0
5.64442e-79
4.8859e-116
1.12863e-100
7.31258e-105
1.0259e-50
1.37631e-24
8.02547e-107
2.26592e-212
3.55458e-33
0
0
2.82966e-184
0
0
7.21928e-215
1.04312e-206
0
6.66768e-167
1.77108e-252
4.01021e-135
0
1.29888e-134
5.51291e-244
7.6587e-204
1.64046e-36
2.24058e-14
9.84969e-93
1.82078e-118
4.75557e-216
0
0
4.08796e-116
0
0
4.88739e-133
1.89233e-209
0
3.12919e-134
0
0
1.40034e-142
0
4.0486e-292
0
1.25787e-99
0
6.78585e-100
1.86682e-183
1.81699e-138
6.07318e-66
2.33611e-136
1.3942e-108
0
4.49067e-278
2.34645e-131
0
0
0
3.68727e-25
3.25393e-85
3.18035e-280
0
0
0
0
0
1.20189e-168
3.56575e-126
4.77549e-88
0
2.30327e-19
2.95716e-223
1.11354e-106
2.17914e-182
0
8.7713e-270
0
0
5.28293e-190
0
0
0
0
0
0
0
0
0
2.05609e-129
4.21527e-126
4.92402e-240
8.24845e-109
5.66321e-162
0
0
1.11866e-220
1.1856e-254
0
3.1275e-112
0
0
0
0
2.65362e-222
0
0
0
0.00865162
0
0
0.00776044
0
3.19383e-14
0
8.47887e-68
2.47308e-40
1.7973e-65
0
3.05045e-58
2.11346e-63
4.72466e-306
0
0
0
4.66418e-151
8.6815e-41
0
3.75871e-49
4.61142e-303
0
2.47033e-323
0
0
0
3.97188e-302
1.59529e-65
0
0
0
0
0
3.09955e-63
0
0
1.93668e-201
9.69077e-123
3.92031e-194
0
3.57243e-68
6.04865e-66
2.93059e-88
2.70093e-93
0
0
0
2.9607e-45
0.00394903
1.53042e-241
0
0
1.09939e-25
0
0
0
0
0
0
9.7547e-27
2.27444e-231
0
0
1.1917e-20
0.0662029
0
3.12026e-97
0
1.09993e-38
1.79179e-111
4.28026e-85
1.29728e-21
3.25603e-233
0
0
0
0
5.1145e-112
3.18587e-112
6.91625e-205
0
0
6.69794e-97
6.77219e-84
3.4603e-186
3.1349e-100
0
0
0
3.60364e-81
0
5.33933e-110
1.24811e-58
7.41298e-111
3.14465e-210
1.07833e-106
2.4705e-117
1.5038e-121
0
0
3.04057e-16
0
0
6.11739e-17
0
1.72508e-61
2.96987e-107
1.24839e-157
0
0
3.11013e-108
0
1.42957e-25
1.6713e-164
0
0
8.01091e-109
6.45611e-63
8.52713e-111
0
3.62432e-91
0
2.99693e-112
7.02362e-59
6.59338e-272
0
1.6332e-50
8.62949e-53
0
1.81468e-38
0
0
5.92336e-164
0
3.33061e-55
0
0
4.54433e-116
0
1.00172e-115
2.01235e-67
4.06351e-61
2.05783e-14
6.83828e-63
1.14543e-60
1.67937e-85
2.97103e-43
0
1.25049e-22
1.09189e-70
2.8841e-118
6.01938e-58
1.21292e-163
0
1.18163e-210
0
1.06558e-58
0
3.53576e-83
0
0
1.21343e-52
0
3.25403e-47
2.51153e-61
8.05974e-163
0
1.92401e-228
0
0
0
0
2.3893e-203
0
0
1.05167e-56
2.61596e-10
0
0
6.53216e-17
3.10667e-313
0.000184492
0
0
1.11793e-18
0
1.92686e-322
2.77269e-115
2.34892e-287
2.32839e-309
0
0
4.50154e-222
0
5.72094e-218
4.57822e-108
0
0
0
0
8.79189e-182
1.19876e-296
8.99046e-301
1.92201e-303
1.02455e-178
9.04343e-196
3.30864e-05
0
2.55038e-37
2.47015e-124
0
5.77647e-298
4.60734e-88
0
1.4368e-66
0
0
2.13696e-54
0
0
1.70474e-113
2.05116e-16
0
1.07534e-116
0
0.0576598
0
3.66117e-76
0
8.50055e-148
0
1.00762e-264
1.28677e-59
0
3.89966e-66
5.6511e-162
0
2.43729e-272
0
1.62842e-122
2.1144e-78
0
2.05876e-122
0
0
1.02807e-33
4.51908e-92
0
4.70674e-46
2.07689e-112
0
7.25948e-34
3.90185e-110
0
9.68171e-232
3.43393e-36
2.64846e-12
2.4589e-215
6.58802e-61
3.06451e-259
0
2.28976e-07
0
6.28428e-98
0
0
1.88181e-106
0
6.46794e-207
0
0
0
5.12066e-102
2.08288e-258
0
0
2.33972e-13
0
0
0
0
5.31077e-191
3.82762e-200
0
0
9.93498e-52
1.08164e-110
6.91976e-77
0
0
0
0
5.89293e-294
6.46862e-14
0
0
0
0
0
0
3.15218e-73
3.63115e-07
6.21405e-20
1.86835e-290
2.02396e-20
0
0
2.09114e-137
9.98061e-43
0
0
2.67747e-88
0
0
1.58138e-16
0
0
0
0
3.4524e-201
0
1.08787e-293
1.80606e-315
1.29452e-119
4.99949e-84
3.67049e-256
0
0
3.25439e-81
6.50452e-86
0
0
3.56215e-200
9.90279e-84
2.16545e-149
5.57567e-80
0
1.07804e-164
0
1.08033e-07
0
6.05759e-32
0
0
1.56861e-05
4.13962e-73
0
0
0
0
0
0
1.96949e-265
0
3.21914e-274
1.46606e-12
0
0
0
0
1.1968e-287
1.65073e-259
0
1.28675e-102
0
0
2.33916e-64
2.85606e-116
1.66095e-78
1.98242e-102
4.95322e-97
2.65912e-249
0
6.22661e-19
1.17678e-07
0
3.01866e-122
0
7.20963e-66
1.94797e-65
0
0
9.59215e-126
8.22476e-06
0
0
0
9.29098e-105
6.88939e-62
0
4.47393e-51
3.05767e-249
0
5.10709e-120
0
3.50274e-119
0
0
5.17269e-192
0
3.46981e-123
2.8639e-177
0
1.88588e-52
6.19034e-135
0
2.53874e-121
0
0
0
0
0
5.2475e-134
6.20165e-137
0
0
0
0
0
0.000236278
0
0
0
0
0
0
0
0
4.93829e-170
0
0
3.81329e-121
4.8087e-286
0
0
0
0
0
1.02237e-167
0
0
0
6.94416e-254
1.58299e-177
1.93082e-288
1.61592e-274
0
1.09389e-140
0
1.09567e-205
1.05532e-128
0
5.35854e-85
3.92386e-145
1.01577e-27
0
0
0.0567372
2.0573e-12
1.89109e-06
0.0149965
0
4.62935e-271
0
6.57726e-281
0
0
6.08344e-318
0
0
0
5.90874e-27
0
3.04546e-145
0
3.71733e-20
1.50224e-292
4.60707e-172
2.47989e-239
0
0
3.05155e-21
0
8.20932e-80
0
4.48934e-207
0
5.46135e-261
0
8.50908e-84
0
1.2833e-208
0
2.66201e-65
0
0
0
8.44574e-199
0
0
0
0
0
0
1.86422e-57
0
0
4.32025e-68
3.00072e-234
2.32228e-53
1.69156e-231
0
2.43668e-113
0
0
7.961e-131
0
2.42793e-170
3.51296e-21
0
1.17854e-62
4.0526e-23
3.37251e-28
1.28746e-26
0
4.34983e-60
0
1.89102e-123
0
0
0
6.51009e-16
2.40244e-215
2.11767e-208
2.02803e-16
0
0
5.54268e-80
0
5.69234e-280
5.6289e-222
0
4.76255e-42
1.18616e-188
0
0
1.58526e-318
0
0
0
0
0
1.28436e-219
0
1.0207e-317
1.25739e-239
0
1.69043e-240
0
5.51773e-202
1.69755e-270
0
0
0
2.16447e-219
0.003076
6.54068e-05
0
0
5.96637e-255
1.06766e-225
6.16022e-17
0
7.38815e-275
2.58993e-99
0
2.52375e-106
9.76398e-102
0
0
0
0
4.22696e-226
0
4.47994e-151
0
5.44572e-253
2.28974e-71
1.80817e-278
6.81456e-112
1.53832e-103
0
1.87351e-101
0
0
1.39722e-99
1.59466e-96
0
0
3.92646e-153
3.11758e-213
0
0
1.63886e-179
1.2697e-97
5.60918e-92
2.37155e-300
0
1.41354e-31
1.28731e-117
0
4.67119e-172
5.84828e-194
0
0
0
1.22841e-94
0
0
1.46887e-202
0
0
0
0
0
0
5.06527e-190
6.77168e-69
0
0
4.91749e-67
1.23278e-146
0
0
0
5.39143e-156
1.99547e-221
0
0
0
0
1.04227e-258
1.13294e-227
0
0
0
4.73666e-51
0
3.59687e-281
4.99933e-115
0
7.3457e-28
0
3.59209e-192
6.69277e-298
9.94604e-207
9.85082e-216
8.95513e-278
0
0
2.6199e-197
4.23536e-153
0
1.1077e-138
1.36705e-142
1.1349e-133
1.83947e-162
0
2.58096e-141
1.14482e-125
0
7.7768e-314
2.03327e-242
0
3.20692e-256
0
0
1.64456e-213
0
3.2123e-73
2.17287e-236
0
0
0
0
6.59012e-177
0
5.05865e-79
0
5.72565e-210
1.04104e-253
9.58417e-110
7.35943e-111
0
0
1.50123e-174
0
0
0
0
4.76196e-51
0
9.73514e-190
1.9894e-205
0
4.15643e-115
0
5.7484e-139
0
8.37428e-211
1.33385e-205
0
0
0
0
2.51767e-100
1.03151e-208
0
0
3.80025e-138
3.8171e-198
0
0
2.2119e-242
2.9137e-233
3.51903e-70
0
4.53446e-160
1.48156e-153
0
0
4.23572e-45
2.48073e-27
0
0
0
1.80786e-146
0
0
0
0
0
0
2.45793e-207
1.93926e-144
3.45875e-95
0
0
0
1.62255e-70
0
0
0
4.05962e-127
0
5.69859e-254
0
0
0
4.2105e-176
6.33352e-209
3.42968e-13
1.74077e-136
2.2899e-184
0
0
2.27137e-25
0
6.04867e-142
0
0
1.0972e-163
2.57252e-253
3.71497e-54
0
7.63071e-48
1.03684e-23
0
0
0
5.21388e-245
6.88761e-224
0
3.06399e-274
0
1.16544e-250
0
2.44256e-52
5.45572e-94
4.28842e-77
3.34181e-238
0
5.81613e-78
1.88234e-16
0
6.88994e-87
0
2.74898e-89
4.2041e-90
2.99258e-180
1.67564e-283
0
0
1.83372e-230
4.89903e-47
0
2.71083e-92
0
0
0
0
6.44808e-22
1.32179e-11
0
8.24006e-31
1.7289e-245
0
9.58023e-282
7.56172e-282
1.38839e-286
2.93388e-279
0
0
2.87313e-277
0
7.52659e-147
0
1.40954e-283
0
0
0
0
0
0
0
0
6.8971e-261
2.2161e-289
0
1.86182e-67
0
0
4.51578e-252
0
0
0
1.99172e-213
8.35926e-60
0
0
2.63927e-275
1.9671e-84
0
0
2.69299e-61
5.61025e-259
1.02378e-90
0
0
0
4.13079e-82
0
8.00932e-83
7.07547e-23
0.0029956
0
1.94862e-307
0
0
0
0.00568538
0
0
3.26544e-267
3.19018e-125
0
0
0
0
2.20195e-39
2.05564e-220
1.7067e-217
0
1.15935e-33
0
1.32434e-287
6.79293e-32
0
1.70524e-191
0.00233052
0
0
4.74755e-254
0
0
4.32015e-303
1.27905e-87
7.07315e-10
0
3.60628e-215
0
0
0
0
6.34498e-243
0
0
3.11274e-253
0
2.10389e-219
3.40736e-278
0
2.94483e-96
0
0
0
1.68969e-91
4.62887e-261
0
6.29443e-61
1.6747e-122
0
8.53267e-11
6.38189e-220
2.99005e-16
3.96725e-250
1.38119e-16
0
0
7.62184e-245
0
0
4.85435e-149
0
0
0
0
3.8602e-184
2.32566e-120
0
0
0
1.108e-206
2.0886e-281
2.13875e-107
8.28225e-145
0
6.94451e-32
5.50365e-259
2.16813e-29
0
2.13211e-300
1.71335e-316
0
0
1.14143e-174
1.64107e-192
0
0
1.7475e-23
0
0
2.41128e-152
0
0
1.83755e-263
0
7.18838e-25
2.41931e-117
4.90638e-278
2.76119e-276
9.50611e-25
2.63486e-163
8.49532e-205
0
0
1.02859e-40
0
0
6.7959e-272
1.58284e-270
0
0
0
5.34819e-36
7.93123e-220
1.63235e-223
1.08207e-230
0
0
2.10922e-208
0
0
1.16997e-34
0
3.55923e-42
1.40609e-42
0
1.16434e-260
1.22116e-163
0
2.62676e-109
0
0
6.15257e-175
1.93533e-207
0
3.8133e-156
0
0
2.11909e-172
0
8.21178e-151
1.34443e-153
0
2.24727e-142
0
2.91842e-175
0
1.39251e-212
2.81287e-108
9.6471e-149
0
0
1.54459e-281
4.71274e-148
0
6.1294e-159
3.38204e-103
2.00314e-242
0
2.7911e-173
4.33964e-285
0
0
0
0
0
9.1493e-188
0
3.75715e-241
0
0
0
0
0
3.73007e-259
0
5.0861e-186
0
0
0
5.80262e-142
0
8.60584e-184
1.81696e-148
2.57791e-101
2.75097e-195
0
0
2.78062e-38
8.0927e-67
0
2.18065e-209
6.77513e-209
7.17984e-139
0
2.37223e-218
0
0
0
0
2.69843e-216
7.5578e-76
0
1.85268e-165
4.73715e-212
2.08133e-222
3.00912e-221
8.42613e-265
0
3.0639e-141
0
1.71198e-253
4.05454e-124
2.60752e-133
1.38994e-213
3.73233e-292
2.58061e-169
1.66015e-294
2.792e-156
1.2824e-133
0
0
7.95109e-236
0
0
0
0
0
0
0
0
0
1.17951e-117
3.94513e-149
0
0
0
2.6242e-295
0
0
0
0
0
7.13014e-289
0
0
1.93181e-225
0
0
1.87326e-174
0
4.82056e-122
0
0
1.14122e-162
0
0
0
1.69502e-256
2.51462e-115
1.31844e-184
1.43891e-136
0
0
0
0
0
2.22959e-30
0
0
7.48929e-184
1.82909e-265
0
0
0
0
1.84378e-241
0
0
2.26333e-249
0
1.96017e-79
0
0
0
0
0
1.00162e-41
0
0
6.47924e-80
1.94237e-82
8.40938e-80
3.74094e-91
4.37544e-84
4.38987e-134
1.42873e-117
0
0
0
2.42588e-130
0
0
0
1.37877e-240
0
0
0
0
0
1.1233e-142
0
2.67601e-199
0
0
0
0
0
0
5.62946e-249
5.26749e-119
0
1.0503e-89
0
0
2.74751e-120
0
0
2.54909e-260
3.78144e-104
2.10183e-253
0
0
1.66537e-40
5.49678e-131
0
7.14021e-80
0
0
3.99794e-253
1.76105e-237
0
2.79719e-129
4.86862e-40
2.90456e-39
1.12161e-243
3.8481e-84
8.59774e-186
8.2842e-30
4.12113e-126
0
6.11973e-28
2.84296e-265
7.37006e-31
3.06333e-219
1.63746e-79
0
1.08384e-84
1.17497e-26
0
1.26493e-29
1.01601e-33
7.67996e-35
0
0
2.73602e-16
9.25403e-173
0
5.87724e-108
0
0
0
6.10937e-92
0
1.82261e-320
0
5.14702e-37
0
7.99305e-129
0
1.03451e-114
3.56732e-45
4.52087e-83
5.02541e-39
3.88366e-108
2.18011e-159
2.72437e-45
8.67241e-52
0
2.22365e-43
0
0
5.37639e-43
0
2.60306e-180
0
1.5694e-41
5.21144e-163
0
0
9.79973e-82
0
2.12325e-38
0
0
0
1.75069e-58
0.00060165
0
0
1.50709e-94
0.00226897
0.0200782
0
0
0
0
1.62995e-196
0
0
0
0
2.22948e-275
0
8.75863e-262
1.17389e-43
6.46038e-222
0
1.78337e-42
5.36741e-38
1.03417e-211
0
7.29659e-209
2.59107e-45
0
0
4.95448e-272
1.5478e-241
0
6.57068e-239
0
1.04097e-110
1.00715e-240
0
0
0
1.68976e-236
2.51297e-91
7.56868e-106
9.46307e-243
2.24996e-124
5.2969e-106
3.96798e-236
0
5.33212e-85
0
0
0
0
0
1.10504e-06
4.25044e-123
7.64859e-202
1.40163e-241
0
0
0
1.35867e-263
0
0
0
1.96071e-236
2.00522e-226
2.64979e-85
6.42489e-133
0
0
0
0
0
0
0
0
0
0
9.13866e-05
0
0
2.42358e-215
0
0
2.31136e-05
0
3.90488e-108
1.34498e-07
9.59443e-166
1.42192e-155
2.34675e-160
0
0
1.42032e-133
0
7.35804e-157
5.71354e-89
0
0
0
0
3.57592e-149
2.49647e-61
0
8.77147e-216
0
0
0
0
0
0
5.06414e-162
1.00332e-168
0
0
4.45265e-209
0
6.72435e-213
0
0
4.26943e-149
2.59872e-100
0
7.07576e-193
0
3.11462e-253
0
0
0
0
1.21346e-192
1.6116e-200
0
0
3.84588e-239
0
0
0
0
0
0
0
1.19921e-159
0
7.5722e-111
0
0
0
0
3.36426e-119
0
0
0
3.51664e-33
7.77699e-159
0
0
6.88011e-174
0
7.55455e-64
3.79005e-105
0
0
0
5.73839e-147
1.93166e-31
0
3.85021e-128
1.78738e-28
0
0
0
6.34002e-117
4.03833e-116
5.5588e-193
0
0
1.29374e-202
6.24339e-30
6.21559e-119
0
0
9.84211e-57
0
0
7.91162e-28
3.11207e-137
1.77409e-118
8.96634e-196
1.83026e-26
3.8451e-183
9.94307e-216
0
0
0
0
0
0
2.48731e-186
1.13493e-36
0
0
7.30117e-114
5.59666e-58
0
0
1.40521e-91
2.946e-60
0
4.5706e-171
5.44878e-150
0
3.53961e-167
0
0
4.21596e-203
3.68563e-92
1.1306e-22
3.63763e-246
0
1.68575e-320
0
1.47734e-269
2.08523e-315
0
6.96177e-83
2.37155e-239
2.91881e-239
0
0
0
0
4.94066e-324
3.7806e-250
9.30707e-91
1.41497e-242
5.99307e-121
0
1.34866e-88
4.57415e-226
0
0
2.37937e-297
0
1.6601e-311
5.93641e-318
0
1.42677e-87
0
9.53299e-75
9.25194e-69
9.58062e-79
0
1.66687e-77
1.49414e-165
0
7.88076e-263
1.36908e-271
0
0
8.7105e-302
0
6.89158e-181
0
1.36321e-212
3.73206e-170
0
1.70011e-171
0
4.68024e-245
7.94778e-268
0
0
2.00359e-209
0
0
4.15803e-266
0
0
2.81551e-211
1.5569e-152
0
3.42303e-86
0
7.94293e-202
7.60507e-223
0
0
0
6.76463e-238
0
0
0
0
0
2.27197e-216
0
0
0
0
0
6.30416e-65
4.16086e-103
0
0
0
0
8.14277e-62
0
1.69604e-99
1.39086e-249
0
6.22587e-148
0
0
0
0
5.43662e-265
0
0
0
0
4.34135e-65
1.3345e-245
0
9.74267e-237
0
0
4.90825e-26
0
2.16618e-161
2.18368e-120
0
3.6564e-291
0
0
1.79462e-219
1.80266e-220
2.61155e-168
0
0
0
0
0
0
0
0
1.36619e-244
0
0
0
8.62895e-134
0
0
0
0
0
1.05643e-256
0
1.26793e-115
2.68837e-176
0
1.028e-170
0
4.61277e-214
2.47443e-150
2.41074e-211
2.58678e-148
0
9.16575e-162
0
8.79107e-132
0
0
6.75946e-117
0
4.04107e-205
0
7.07144e-98
0
0
0
8.77279e-90
0
0
0
0
2.1412e-63
0
3.19582e-158
0
0
3.6198e-46
0
2.01117e-52
0
0
1.21947e-289
1.42738e-186
0
1.29928e-254
0
2.03928e-29
0
0
1.31019e-19
4.67095e-92
8.5868e-18
1.43167e-104
0
0
0
0
8.10918e-267
1.13984e-21
0
0
4.40026e-109
0
4.17836e-112
0
1.21675e-25
9.75245e-161
1.40412e-16
1.38126e-22
0
0
0
2.07342e-157
4.18878e-64
3.23208e-32
1.15371e-107
0
7.15165e-155
2.29514e-175
9.69386e-163
7.71693e-276
0
2.86062e-298
5.97899e-167
0
0
8.445e-159
0
2.18756e-267
5.22133e-33
0
5.56391e-84
5.92178e-35
2.48719e-26
1.40668e-79
0
1.60961e-183
6.5691e-27
6.57931e-218
0
1.45673e-229
6.81826e-163
2.3195e-29
3.24015e-279
0
0
5.52438e-234
0
1.04063e-314
9.67205e-30
0
1.07888e-183
1.97863e-249
4.98351e-121
8.1026e-197
1.37983e-159
4.83709e-202
4.04382e-94
0
1.3887e-223
0
0
0
5.66819e-210
7.0689e-173
0
3.51925e-211
5.11164e-285
0
0
0
0
1.16716e-310
3.86788e-194
1.33553e-252
0
0
5.67255e-249
2.73769e-252
0
1.23892e-254
0
0
2.28287e-71
0
2.16791e-173
9.04599e-229
0
2.99047e-83
1.98215e-171
8.62287e-238
1.17592e-202
1.58503e-229
3.31631e-234
4.13093e-139
0
0
0
3.46739e-218
8.14652e-198
0
0
2.74997e-235
0
0
0
0
0
0
0
1.08328e-221
2.98479e-200
0
1.99808e-199
0
3.08916e-236
2.77467e-169
0
1.54658e-177
0
0
0
4.91755e-233
1.16182e-125
0
0
0
9.05475e-225
6.40781e-152
0
0
0
0
1.80067e-254
7.216e-102
6.63205e-237
1.81938e-107
1.10367e-37
1.5023e-84
1.71912e-256
0
0
0
3.76406e-78
0
3.5723e-254
2.14041e-251
0
4.79754e-24
0
1.71743e-230
0
0
0
0
0
0
0
0
4.06247e-59
0
0
1.23941e-26
0
0
0
4.38271e-231
0
0
0
1.22346e-32
0
2.43698e-96
3.47953e-100
0
2.54564e-198
0
1.46898e-22
9.97322e-273
0
3.29365e-234
0
6.79946e-19
1.65057e-268
0
1.00998e-17
3.71639e-35
2.27988e-237
0
0
0
0
1.60295e-316
5.87818e-30
1.32987e-250
0
1.7465e-42
0
1.51321e-24
1.30052e-07
0
5.75948e-139
4.07755e-265
8.56707e-55
0
7.1207e-40
0
1.06653e-38
2.52152e-107
2.53627e-246
5.60547e-154
0
6.87789e-320
2.2233e-322
9.88131e-324
7.54618e-200
0
0
0
6.85717e-17
3.08055e-96
0
2.29855e-34
1.79317e-36
6.24406e-90
1.35754e-313
0
6.45925e-197
0
0
0
0
6.2155e-46
0
1.08653e-12
0
0
0
5.2912e-46
9.31014e-193
0
7.61452e-105
2.50389e-25
0
3.5903e-53
1.12392e-74
8.7917e-247
6.31611e-98
6.70404e-153
0
3.47329e-105
7.95955e-206
0
2.75257e-193
0
2.60111e-140
0
0
1.59714e-41
5.3064e-77
5.63729e-321
9.77188e-277
0
0
2.2662e-274
1.42429e-81
3.65473e-28
0
0
0
2.82898e-296
0
0
8.56155e-28
4.61492e-48
7.00243e-272
9.99417e-279
7.16043e-276
1.15857e-212
1.66299e-224
0
7.28343e-222
0
1.09486e-269
1.30873e-272
1.54141e-57
0
0
9.78352e-255
0
0
2.4076e-52
0
6.96869e-214
3.04244e-213
0
0
0
0
0
0
0
0
5.17803e-53
0
0
0
0
0
3.86764e-155
0
1.39061e-169
2.76828e-140
0
0
0
0
0
1.81846e-297
0
0
0
0
0
1.17856e-201
5.08216e-176
0
9.81083e-314
0
6.09906e-279
9.14491e-253
2.83537e-223
0
1.64835e-258
0
0
0
0
0
2.90603e-220
1.03784e-129
0
5.60928e-20
0
0
3.87082e-98
5.87105e-81
0
0
3.17802e-17
4.11178e-18
2.28819e-120
0
1.48026e-14
0
0
1.60971e-16
0
4.1583e-28
0
0
0
0
2.06031e-121
0
2.39667e-26
6.63693e-218
0
0
0
9.44903e-134
0
4.46554e-283
1.15044e-291
8.74586e-31
0
0
0
0
7.16935e-231
0
1.19953e-259
0
0
0
0
0
0
6.74837e-259
4.83671e-27
0
0
3.34206e-220
0
1.78877e-55
1.30763e-309
0
8.30969e-125
0
0
0
0
0
1.27156e-275
0
0
0
1.40432e-179
0
0
1.06681e-267
2.52214e-318
0
3.13846e-215
0
0
1.6555e-304
6.39503e-267
0
0
1.25226e-17
5.60089e-06
8.68241e-294
0
6.05796e-229
0
0
7.62352e-153
0
0
0
1.68842e-07
1.06492e-182
0
2.9252e-309
1.04464e-06
0
0
0
0
3.75616e-250
1.31489e-263
0
0
3.56987e-220
0
7.51864e-190
0
1.58074e-241
0
5.15047e-257
8.83103e-228
9.68697e-233
0
0
0
5.78352e-62
0
0
4.42778e-96
8.08173e-256
5.12722e-249
0
1.15209e-256
1.14592e-25
1.41366e-157
0
0
5.65981e-265
2.75181e-211
2.91529e-215
3.56274e-199
0
0
8.37926e-217
2.20705e-17
0
0
3.68973e-16
4.54157e-14
1.20003e-79
0
1.62147e-257
0
0
1.89421e-236
8.32414e-238
2.22054e-211
0
2.28271e-291
0
4.51092e-244
0
0
0
0
2.71508e-93
0
3.47677e-192
1.30313e-257
0
0
7.29206e-80
0
1.05054e-173
3.48141e-269
0
2.59605e-63
2.15307e-90
9.55694e-61
2.8154e-216
0.000101712
5.46589e-185
0
5.90284e-44
0
2.102e-72
7.32113e-70
7.84127e-282
0
4.24043e-214
6.3683e-86
0
0
0
0
0
0
3.84794e-288
1.80782e-264
0
0
6.944e-201
6.0484e-93
0
0
0
4.79987e-104
2.37508e-102
1.12044e-314
1.83691e-81
1.39215e-269
9.29403e-137
3.54066e-271
3.46357e-281
0
0
4.68817e-134
8.81714e-32
0
5.12847e-318
3.25083e-105
4.35241e-136
1.98915e-237
0
1.18584e-133
4.49189e-183
9.08035e-201
0
3.31514e-212
0
9.06139e-220
1.20422e-140
1.93103e-184
0
4.61069e-133
4.98456e-101
1.52352e-107
9.43777e-19
0
9.60518e-164
1.06835e-283
8.98552e-267
1.73169e-20
0
3.96524e-267
0
0
0
9.84378e-136
1.5064e-139
1.44788e-195
1.62516e-143
6.17227e-138
5.04709e-38
0
0
0
0
0
0
1.57844e-20
7.07457e-285
0
0
0
2.70842e-175
3.74354e-182
0
0
2.79207e-286
1.08749e-20
4.47562e-19
0
3.15996e-84
0
6.10585e-86
6.06357e-169
0
0
2.78274e-130
0
0
0
1.26482e-227
1.27383e-130
0
0
0
5.27122e-152
2.08543e-165
0
5.36306e-306
0
6.17683e-163
0
2.89444e-144
0
2.52393e-133
5.94253e-137
0
3.81719e-253
0
0
1.34971e-317
1.00799e-132
2.05693e-176
3.15064e-190
0
1.42704e-132
0
7.13226e-176
1.17448e-80
0
0
0
0
0
0
0
3.88994e-152
0
2.06703e-81
5.98163e-171
5.08327e-135
7.73261e-84
0
0
1.02761e-221
0
0
5.38367e-148
9.10865e-80
0
0
0
3.81273e-82
0
5.11436e-244
4.40673e-244
3.0503e-231
0
0
0
0
0
1.49006e-309
0
0
0
1.43969e-295
0
5.66266e-311
0
0
1.2217e-91
4.7377e-301
2.91103e-82
3.23666e-292
0
3.51895e-126
0
0
1.15718e-178
4.91329e-314
4.94066e-324
0
0
0
0
5.33451e-263
0
0
0
0
1.20115e-150
1.85416e-289
0
0
0
1.06697e-284
0
7.59843e-240
0
0
2.71014e-196
3.8639e-255
1.73089e-186
0
1.33921e-299
0
0
0
0
0
2.05121e-153
6.23187e-213
8.84841e-306
0
3.18326e-252
6.46188e-270
0
0
0
2.64029e-279
0
2.39782e-301
0
0
6.53653e-141
5.50931e-198
1.47861e-247
0
8.74953e-181
0
9.6019e-310
7.83854e-178
0
0
1.30205e-206
2.94083e-255
0
0
3.8601e-274
1.19304e-10
0
0
2.37059e-159
0
0
0
0
1.23104e-258
0
0
0
0
0
1.45125e-131
8.77604e-162
0
1.37924e-303
0
1.60967e-161
6.4182e-164
0
0
0
9.51922e-309
4.68417e-287
0
8.35134e-255
0
0
6.34069e-166
0
0
8.9721e-164
8.18661e-134
0
0
4.82206e-146
0
0
0
7.26945e-145
1.51396e-187
0
0
1.98338e-261
0
1.41074e-296
0
0
0
0
0
0
0
1.50887e-290
0
6.8033e-247
0
0
0
5.16602e-263
0
9.05441e-303
0
0
0
1.8436e-184
0
0
0
0
0
0
1.46718e-241
0
0
0
5.45149e-219
0
0
0
1.05569e-296
8.46774e-137
0
0
1.59274e-132
0
2.34993e-81
0
0
0
0
0
0
0
0
0
0
0
0
0
2.02757e-50
0
1.19193e-238
7.14972e-318
0
7.86356e-56
2.546e-75
1.03325e-301
0
0
0
1.26651e-54
9.61867e-15
0
0
2.24938e-271
6.57633e-285
0
0
0
0
0
0
0
5.84837e-68
0
0
0
4.19286e-131
0
7.08622e-128
2.30246e-128
1.24064e-281
2.82821e-35
0
0
0
0.0024285
0
0
0
0
1.37213e-80
0
3.7744e-297
0
0
5.13513e-248
0
0
0
1.81139e-80
0
0
0
3.11939e-65
0
2.21739e-136
0
1.01477e-138
0
2.14424e-321
5.55942e-143
0
1.24676e-250
1.33761e-256
0
3.06163e-247
0
7.46954e-48
7.24441e-249
0
9.23915e-141
0
0
0
4.95753e-65
0
0
6.14013e-161
0
0
0
2.14644e-19
0
0
0
0
0
4.40253e-314
0.00558718
4.97736e-165
0
8.7378e-257
0
0
0
0
0
0
3.02127e-123
9.72825e-244
4.74727e-251
0
0
0
0
1.91167e-248
0
8.9347e-245
8.59038e-126
1.42204e-310
0
2.13193e-258
2.12291e-198
0
2.42032e-265
0
0
9.0704e-106
1.0728e-291
3.23764e-110
0
1.57975e-157
0
0
1.0978e-107
1.23803e-160
5.0541e-291
0
0
1.54875e-319
1.25399e-105
0
0
7.05368e-157
0
0
0
5.28283e-17
0
0
0
2.7975e-271
5.54081e-285
4.47916e-257
0
0
0
0
1.37501e-137
4.74484e-172
0
0
4.17751e-271
5.92376e-258
0
2.35902e-185
0
0
1.30965e-58
8.81629e-119
0
4.83054e-256
0
0
0
0
0
0
1.79794e-258
1.79858e-265
0
6.12659e-121
7.1951e-122
0
0
0
6.24981e-57
4.17465e-256
0
0
3.35057e-301
0
7.53288e-288
0
0
0
1.01059e-220
0
0
8.24549e-279
0
1.23716e-288
0
0
1.92763e-293
2.14968e-210
4.70164e-269
2.57379e-135
0
4.18102e-132
0
0
2.02038e-292
4.61786e-271
0
0
0
0
0
1.05806e-147
3.22402e-53
0
3.63532e-53
0
0
0
3.37853e-231
0
3.0514e-55
3.55946e-51
7.308e-302
7.55212e-236
2.71696e-233
0
1.15042e-236
0
0
8.42478e-255
8.26285e-290
0
0
1.13577e-271
1.22812e-233
0
0
3.42385e-308
5.60947e-222
0
0
0
0
0
0
0
0
0
0
0
0
0
0
0
0
3.38929e-288
4.73258e-267
0
5.85505e-302
0
4.28651e-320
3.33837e-157
6.76338e-174
9.84838e-163
2.57252e-141
6.42315e-139
5.84249e-129
5.79066e-151
0
0
0
0
0
0
1.60316e-278
6.8939e-164
0
0
0
4.19654e-139
2.76572e-143
0
0
0
0
0
5.25314e-283
0
0
0
0
0
0
0
0
0
4.26643e-295
0
8.13029e-293
2.50992e-303
0
0
0
3.19594e-217
5.02282e-88
0
1.68793e-133
0
0
1.88084e-263
0
4.28886e-131
0
3.04854e-254
3.59615e-148
0
0
5.22565e-152
0
0
0
0
0
3.26392e-156
0
7.99134e-279
0
5.68748e-292
0
1.4002e-84
8.44064e-169
0
0
0
1.30463e-171
0
7.14433e-127
1.30257e-87
0
2.70974e-314
0
2.9987e-295
0
0
0
1.24339e-242
0
0
0
6.39428e-125
5.85087e-276
0
4.67887e-287
7.69568e-238
4.03e-311
0
1.61675e-272
2.39678e-243
0
0
2.97547e-228
0
3.6286e-90
4.31855e-166
0
0
1.98345e-205
1.40215e-127
1.39752e-279
1.69432e-134
0
0
0
5.45878e-131
1.65119e-278
0
0
8.35239e-246
7.6164e-134
2.58961e-302
0
3.36604e-47
2.34341e-70
8.63478e-269
6.85555e-31
2.35701e-24
0
1.14075e-228
1.82385e-70
7.67425e-67
1.69269e-132
1.74427e-131
1.26498e-121
0
1.05413e-213
0
3.17029e-131
2.53566e-36
3.25347e-99
0
2.66096e-06
0
1.15386e-76
9.08038e-78
0
0
0
9.98356e-165
2.02557e-307
2.40264e-85
1.08121e-67
0
0
0
1.66208e-98
8.81982e-304
0
0
5.8121e-280
1.68454e-67
6.72246e-117
4.82892e-315
0
0
5.13075e-149
0
0
0
2.81541e-311
3.60475e-131
0
0
0
2.69075e-94
0
0
7.93301e-117
0
7.49581e-308
0
0
2.01543e-155
0
3.86753e-88
0
1.64377e-215
0
0
0
0
4.65984e-22
0
0
1.24848e-29
1.14304e-68
0
6.99629e-80
4.65501e-105
2.0216e-18
3.71043e-82
0
0
0
7.51509e-35
3.90683e-38
3.16365e-124
0
2.14832e-59
0
0.0181536
8.75189e-22
0
0
0
0
3.6959e-11
9.43336e-24
0
0
1.59467e-174
4.12646e-129
6.4311e-139
5.52505e-116
3.63854e-184