/*--------------------------------*- C++ -*----------------------------------*\
| =========                 |                                                 |
| \\      /  F ield         | OpenFOAM: The Open Source CFD Toolbox           |
|  \\    /   O peration     | Version:  v2012                                 |
|   \\  /    A nd           | Website:  www.openfoam.com                      |
|    \\/     M anipulation  |                                                 |
\*---------------------------------------------------------------------------*/
FoamFile
{
    version     2.0;
    format      ascii;
    class       volScalarField;
    location    "1.5";
    object      G;
}
// * * * * * * * * * * * * * * * * * * * * * * * * * * * * * * * * * * * * * //

dimensions      [1 0 -3 0 0 0 0];


internalField   nonuniform List<scalar> 
108993
(
1985.23
1837.22
1870.79
2111.34
1896.8
1837.21
1837.22
1937.85
4663.33
1849.92
1859.41
1879.38
2030.56
1839.26
2339.61
1837.54
1848.16
1957.1
2051.02
1837.22
1865.9
2670.78
1837.22
2630.9
2040.34
1837.21
6037.78
1837.22
1837.22
1925.14
13379.5
1841.52
5155.15
1973.8
2166.97
1865.47
5238.2
2028.78
1837.22
1837.22
1837.22
4315.92
1841.06
2251.07
1839.01
1837.22
4750.03
1837.22
1837.21
1837.21
7306.64
1837.49
1837.22
6749.02
1930.35
2670.53
6981.79
1902.49
2010.09
1909.08
1912.23
2030.48
1881.25
1837.21
2419.6
1837.21
2409.51
1906.87
1841.78
1840.32
2517.14
1912.38
1898.58
1903.93
1837.21
73920.7
1837.21
1872.89
6317.71
2204.17
2438.71
1857.42
1956.1
2073.99
1965.92
1840.38
2048.68
1861.08
1996.56
2247.6
2113.91
24727.4
2122.57
1938.08
2089.19
1837.99
19071.1
3260.36
16450.7
6186.4
2006.72
2022.68
2525.84
1843.3
2593.54
2160.21
1955.42
2884.46
2433.04
1837.21
1838.12
2162.83
1838.05
1837.3
4589.87
1837.21
1886.25
1955.44
1841.69
20516.6
1845.18
2295.9
1837.21
1842.12
1931.95
1839.47
1837.22
2627.41
2473.21
2787.96
1837.89
2464.12
2641.44
1837.22
3781.23
1850.54
2325.06
2626.37
1933.35
1839.33
1845.84
11744.7
1839.71
2487.59
2839.44
1911.3
3040.85
1837.21
1842.72
1837.22
1837.22
1837.21
1837.22
1837.22
2231.46
1837.23
2095.33
5128.15
6933.98
1839.08
1837.22
5920.84
39685.2
2244.23
1846.32
1837.31
1939.37
1837.21
1837.21
3926.98
1958.28
2801.84
1838.19
2263.5
1837.22
1837.21
1837.22
1837.21
3198.74
2185.55
1841.45
2056.63
4128.18
1843.81
1841.13
2426.57
3112.34
1900.57
1977.87
1842.88
2423.33
3999.41
2392.64
1837.22
3132.64
1858.82
1837.22
2464.27
2398.17
1847.34
1968.99
1837.22
1922.68
4657.01
1837.31
1837.21
5797.27
1837.21
4247.25
1837.22
1838.16
2240.47
1837.22
1837.21
1837.22
2442.12
2253.39
6296.85
5241.87
6562.99
1837.21
1837.22
1861.97
1837.22
1837.21
1837.21
5018.34
1898.87
1837.25
1837.21
1837.22
2758.53
1837.21
1837.22
2894.28
6586.47
4397.6
2549.25
1838.07
5704.76
8344.65
5368.06
1932.32
5393.38
4115.59
1837.36
1837.21
1837.21
5960.26
2165.05
39328.4
2259.44
5346.04
3661.03
4205.9
5766.71
3887.5
1846.15
12066.7
1837.21
2334.62
1837.21
1838.04
1839.68
4869.33
1837.21
2374.69
1837.21
1837.21
4556.88
2006.54
1894.34
1837.21
1837.22
1837.21
3597.81
12053.9
1837.21
1848.87
1837.21
1837.21
1837.22
1837.22
1837.21
2889.69
1837.35
1989.82
1837.21
1840.94
1837.21
1841.75
6031.54
1837.21
3708.19
1837.21
2593.64
28223.1
2303.19
1855.38
1900.18
1837.21
1837.21
2348.05
1906.07
5095.08
1837.24
1837.21
1837.22
1837.24
1837.21
1877.9
2091.38
1837.62
1910.93
1837.24
1837.21
1837.21
1837.48
1837.22
5627.56
1837.22
1837.21
1837.22
1837.22
3129.92
1837.22
1837.22
1837.21
5578.43
1876.38
1837.21
1837.21
1837.22
5093.65
1837.21
2094.15
3094.7
1921.53
3779.47
3731.42
3444.34
1837.21
1837.21
2546.8
1964.79
2159.01
1968.72
1866.51
4214.51
2006.07
4071.67
1837.21
1837.22
1837.21
1837.21
2483.12
3527.62
1837.22
1916.66
1837.21
1837.41
1837.21
2040.64
1905.89
1837.21
1837.22
1926.55
2754.45
1936.46
1837.22
1837.22
1837.28
2009.29
1837.22
1837.22
1837.22
1843.54
4762.46
1837.21
2420.7
1837.21
1837.21
1837.22
1837.3
2202.37
1837.26
1838.78
1837.22
1837.21
1837.21
1837.21
1837.27
1837.21
1838.59
1837.21
1837.21
1837.22
2323
1839.33
3610.36
1837.21
1837.21
1837.21
3787.39
1837.21
1837.27
1837.25
2752.53
1869.92
1837.22
1844.85
1837.22
1837.22
2212.51
1850.26
5333.74
1837.22
1843.79
1837.21
1861.69
1837.22
1837.22
1837.22
1837.21
1959.82
1837.22
2001.44
1837.21
1837.22
2009.1
1837.22
1837.22
1837.22
3359.9
3377.95
1845.68
1837.21
1837.21
1837.21
8687.3
1969.39
2413.78
2492.51
1837.21
1839.18
1837.22
1837.22
1838.18
2108.09
1837.21
1838.67
2023.69
1961.33
1881.21
1837.21
2482.12
1895.57
1837.21
2055.44
2043.42
1837.21
1842.83
1837.21
1837.21
1842.62
1870.23
1837.21
1837.21
1875.75
1853.81
1857.09
1878.43
5597.16
1837.22
1837.21
1837.73
10371.7
1838.24
1837.21
1839.69
2558.87
8171.08
10443.7
2074.05
1844.87
1852.52
1864.09
1865.67
1838.5
2072.45
1897.7
2321.54
1839.99
1848.22
1839.16
1925.05
1842.25
2486.74
2011.74
1837.22
3242.71
11584.1
6808.95
1877.25
1839.23
1837.21
1959.72
9969.18
1837.22
1955.4
1840.15
1837.22
69677.5
1837.27
2024.83
4674.62
1837.21
1944.69
1837.22
1837.22
1837.21
1837.21
1837.22
1837.23
1837.21
1839.17
1837.3
1929.28
1839.29
1837.23
1837.22
1886.86
1839.92
1839.28
2153.06
4447.86
1837.34
1851.78
1865.23
1837.21
1893.21
1837.21
1914.83
1913.52
1972.23
4890.4
1890.27
1839.83
3030.13
2912.18
1837.21
1837.22
1837.22
2112.33
1946.37
1890.11
8735.35
1837.22
1837.22
1837.22
1896.09
51522.5
1861.96
1837.22
1839.56
1837.21
2136.66
14127.8
1837.22
1837.22
1840.58
1837.22
1837.22
1839.5
1837.21
1837.22
2015.78
1839.71
1837.22
1837.22
1838.25
2495.67
3211.85
2037.4
2334.73
1839.75
1837.22
1839.46
1838.55
1837.21
1837.22
2139.08
1837.22
1957.81
1837.22
2214.68
5763.13
2142.04
1837.22
1839.75
1879.27
1851.48
1837.22
1837.29
1839.99
2233.33
1837.22
2193.45
1838.02
1842.02
1837.22
1840.14
1840.62
1841.97
1837.22
1887.48
1840.49
2139.16
1837.21
3226.31
1837.27
3447.39
2388.5
1837.21
1837.22
1900.42
11842
1837.21
1837.22
1839.65
1837.21
1837.21
1837.21
1837.22
1840.37
1837.21
2218.98
1837.22
1839.02
1837.61
1874.25
1837.57
2374.12
1837.22
7224.32
1840.88
1837.35
1838.38
1838.79
1839.44
1838.7
1838.65
1837.21
1837.22
1844.92
1837.22
1837.26
1837.22
1837.53
1837.22
1837.22
1837.21
1839.36
6242.27
1837.21
1837.22
1837.46
1837.91
1837.21
1837.21
1837.49
1837.23
1837.33
1837.22
1837.22
2023.88
1837.22
1867.64
1837.21
1837.21
1837.22
1838.09
1842.46
1838.34
1837.21
1837.96
1837.3
1866.76
1867.81
1837.22
5572.54
1857.78
1837.87
1854.1
1837.22
1837.22
1862.15
1837.21
1863.13
1837.22
1837.24
11035.6
1837.21
1837.21
1838.85
1872.22
1839.01
1837.22
7353.5
1837.21
1837.22
1837.21
1837.22
2259.03
1837.22
3036.97
1837.84
1842.09
1909.5
1837.61
1837.22
1839.43
1837.25
1837.74
1905.59
1840.71
1837.22
1837.89
1837.21
1864.76
1837.84
1838.64
1837.62
1839.37
1837.72
1907.13
1837.59
1837.21
1872.92
1837.22
1852.02
1838.47
1837.22
1837.21
1838.88
1837.22
1841.8
1839.25
1839.33
1843.84
2059.43
1837.21
1837.21
1839.63
1837.21
1837.22
1837.21
1837.3
1840.2
1837.21
1840.96
1837.21
1840.81
1837.67
1837.24
1837.22
1837.22
1837.21
1994.57
2031.1
1837.99
1837.25
3583.26
1837.21
1837.21
1839.66
1838.07
1837.22
1837.21
1844.74
2027.2
1837.23
1837.58
1837.76
1837.22
1837.21
1837.22
1866
4236.35
1837.24
3042.42
1837.22
6268.3
1983
1837.22
1838.21
1837.21
1837.25
1837.22
1901.76
1837.22
1838.5
2162.45
1838.05
1838.31
49984.9
2271.48
1841.67
3369.88
3053.37
1841.89
1837.22
2203.74
1837.27
2331.16
1837.23
1837.23
1847.71
1837.22
1837.23
1837.22
1839.37
1839.27
1837.29
1837.22
1837.22
1837.24
1837.27
1837.7
1837.22
1837.43
1837.21
1837.43
1839.89
1838.51
1837.24
1844.6
1837.22
1837.22
1847.44
2111.13
1838.28
1837.22
1841.01
1837.24
1837.26
1837.41
1850.43
1837.22
1839.32
1837.22
1845.9
1837.22
1839.73
1837.22
1837.26
1837.95
1837.6
1840.47
1837.27
1837.27
1837.78
1837.22
1837.22
1837.21
1837.21
1838.5
1838.51
1837.33
1837.67
1916.01
2029.62
1839.31
1837.22
2925.26
1837.76
1838.25
1837.22
1837.22
1838.06
1837.22
1837.22
1837.22
1837.56
1837.22
1837.22
1912.47
1837.22
1837.22
1837.22
2174.86
3897.27
1837.25
1838.88
1837.25
1837.21
1867.75
1839.48
1837.21
2092.07
1837.35
1837.22
1837.22
1837.22
1837.21
2801.84
1837.22
1837.22
1837.22
1837.22
1877.65
1854.23
1838.99
1837.26
1837.22
2010.98
1837.22
1837.44
1839.01
1837.22
1841.33
1839.21
1837.25
1837.22
3625.8
1838.88
1837.21
1837.27
1837.21
1837.21
1837.21
1837.21
1838.09
1838.85
1838.2
1837.98
2338.42
1837.21
2732.83
1837.22
1837.22
1837.22
4698.68
1837.25
1837.35
1837.21
1851.58
1837.22
1837.69
1837.21
1837.21
1837.44
1837.21
1837.21
1846.23
1837.26
1837.21
1837.73
1852.14
1837.68
1837.22
1837.56
1837.21
1837.46
1837.26
1837.62
1852
1840.12
1837.22
1837.22
1837.55
1837.21
1852.03
17122
1837.22
1837.55
13369.7
2619.12
3623.99
1837.43
1845.41
1860.7
1851.37
1837.22
1840.95
1853.79
1837.22
1837.25
1865.56
1838.59
1843.14
1951.9
1837.21
2430.98
1837.21
1837.22
1837.21
1837.22
1837.22
1840.81
1837.22
1846.59
1886.51
1837.52
1840.4
1837.34
1837.21
1847.7
1837.21
1855.64
1837.22
1838.03
1837.29
1837.21
1846.2
1847.08
2764.98
1837.55
1837.22
1843.44
1837.21
1861.17
13855.8
1837.21
1870.22
1837.22
3673.21
1876.44
1837.22
1837.76
1837.3
1837.23
1882.7
2246.87
1837.22
1837.25
2431.95
5571.6
27711.6
1837.22
1837.5
1837.22
3949.94
1837.38
1837.37
3138.97
1837.22
1837.77
1838.79
1837.23
1837.22
1837.4
1839.33
1837.22
1837.22
1837.21
2524.5
3003.03
1838.08
1839.42
1837.22
1840.88
1837.23
1839.48
1837.22
1837.69
1838.22
1837.3
1837.59
1837.26
1901.72
1837.23
1837.63
1838.62
4653.1
1837.21
1837.21
2316.43
1837.21
1892.35
2014.54
1837.22
1837.21
1837.22
1946.78
1851.02
1935.22
1838.71
1837.22
1837.21
1958.18
2464.79
1837.3
1837.21
1837.81
1837.22
1838.56
2221.95
1837.21
1837.21
2760.43
2358.86
5624.07
3022.62
1837.22
1837.22
1838.91
1973.48
2345.65
1837.21
1837.46
1837.95
1837.21
2227.41
2556.72
2449.67
2707.36
1893.63
1894.03
2760.92
1892.15
1837.21
2212.07
3049.4
2219.14
1850.47
1839.58
1837.31
1837.4
1837.21
1846.19
1869.07
1840.71
2001.07
1881.04
1855.22
1837.22
1845.07
1850.39
1837.36
1837.51
1837.22
1837.22
1837.22
1867.9
1838.91
1837.22
1837.22
2509.34
2394.33
3911.92
1837.22
1837.22
4196.52
1837.21
13234.4
1837.21
1837.21
2368.43
1837.21
1837.46
1849.88
1837.22
1837.21
1837.22
1837.22
1837.22
1837.21
1837.22
1843.48
1837.21
1837.22
1837.22
1896.63
1838.52
1837.26
1837.27
1837.26
1837.22
1837.22
6405.25
1837.37
2060.37
1837.24
1837.4
1837.25
2477.93
1837.22
1837.7
1837.22
1842.1
1885.96
1837.21
1837.22
1837.39
2572.72
5048.26
1837.39
1837.21
49191.5
1837.21
1849.85
1837.21
1837.22
1837.55
1837.21
1969.64
1838.59
2443.32
1841.26
1837.21
1837.22
1837.21
1837.28
1840.71
1837.33
1837.24
1837.57
1837.22
2461.43
2138.84
1849.93
1884.91
2246.66
1837.22
2675.91
2233.6
3002.24
1837.21
2343.27
7835.07
1837.22
1856
1837.21
1837.21
9444.76
1837.22
1900.58
1837.65
2629.09
1906.8
1866.51
1837.22
7903.71
1837.21
1844.79
2564.35
1837.21
2719.95
1837.21
3847.39
1837.23
1837.22
1838.85
1839.09
1837.78
1837.22
1838.98
1837.22
2594.41
1840
2396.47
1837.21
1837.21
1837.21
1837.21
1837.21
3997.78
1837.21
1837.21
1837.27
1837.29
1837.21
1837.89
2448.28
4851.9
3721.28
1837.28
4878.57
1837.22
1837.21
1837.99
1907.49
2714.46
1837.21
1979.96
1837.21
1837.21
2152.2
1837.24
1837.22
1837.21
1837.25
1837.22
1837.22
1837.22
1837.22
1839.67
1881.83
1837.22
1837.44
1837.21
2055.83
2044.83
1837.21
1968.49
1837.22
2047.21
1838.95
1869.27
1840.74
1838.19
1910.91
4418.33
1837.22
1884.27
1926.53
15555.6
7923.47
1838.17
1837.22
1837.26
1837.22
1837.21
1917.25
1837.21
1837.21
1872.99
1837.21
5545.29
1837.22
1837.22
1837.6
1840.3
1837.21
1837.21
1837.81
1842.19
1837.21
1837.21
2417.92
2004.56
1893.85
1955.42
1892.46
1837.22
1837.22
2416.23
4191.84
1837.22
1899.1
1837.22
1844.7
1843.22
1837.22
1837.22
1901.58
10821.1
1837.21
1837.21
1837.22
1837.76
1841.75
1837.27
2036.69
1837.22
1845.3
1899.47
1837.22
1838.92
1858.82
1837.21
1837.23
1837.22
1839.12
1837.22
1837.21
1843.75
1879.44
1837.26
1838.06
1944.88
1877.23
1837.51
1837.21
1837.21
1893.54
1887.37
1837.21
1866.54
1837.21
1837.21
1868.44
7459.34
1863.37
1837.56
1837.22
1837.21
2915.4
1837.22
1860.92
1837.21
1864.31
1837.21
1865.71
1837.28
1837.21
1838.88
1837.29
1837.22
1855.68
1837.22
1837.39
1837.21
1837.21
2693.48
1837.21
1837.64
1837.21
1837.21
2117.61
1837.26
1837.21
1837.22
1840.19
1837.22
2046.87
1837.22
2288.08
2203.77
1837.22
64764.5
5654.48
9152.4
35616.9
1837.21
1837.21
1837.22
1837.21
1837.22
1837.21
1837.21
1837.21
1837.21
1837.21
3769.19
1837.22
1838.18
1837.21
4656.52
1837.21
1837.39
1837.22
2552.91
1837.46
1876.6
2340.78
2450.68
1837.22
1837.22
1837.82
1837.21
1837.22
2413.08
1881.09
1837.22
2067.57
2221.78
1837.21
1837.21
1837.21
1837.31
1837.22
1969
1886.3
1837.22
2081.14
1837.22
1845.24
2254.49
1837.22
1988.95
1837.22
2555.09
1837.22
1837.22
1837.35
1837.22
1837.21
1838.42
1886.75
1837.34
2523.94
2228.82
1986.1
2160.37
2226.18
4726.09
1837.22
1878.38
1841.21
1837.23
1837.21
1837.21
1837.21
2834.33
1837.22
1837.22
2704.59
1837.21
2629.89
2070.85
1838.08
1837.21
1837.22
1837.21
2921.91
1837.22
1837.22
1837.21
1837.21
1837.21
1838.13
1837.94
1837.21
1837.25
1837.22
1837.94
1837.21
1838.07
1837.21
1838.19
1837.63
1837.41
1837.57
1837.26
1837.21
1837.22
1837.22
7831.75
5092.96
1837.22
1978.06
1837.22
1837.21
4464.81
1837.22
1837.69
2302.52
2109.95
2435.55
2480
1837.61
1837.21
1837.21
1837.21
1837.21
2309.53
1837.22
1837.62
1837.25
1865.35
1837.22
2234.46
2288.25
1837.21
2401.15
1837.23
2452.62
2487.52
1838.58
1837.22
1837.58
1839.8
1837.22
1838.53
1837.21
1837.22
2490.83
2239.38
1837.22
2221.06
2734
1976.53
1837.21
1837.22
1837.24
1837.22
1837.22
1840.97
2185.34
1839
1837.21
1837.22
1837.22
1837.21
1837.47
1837.21
1837.21
1837.24
1837.26
1869.13
1837.21
1863.39
1874.93
1837.22
2069.61
1838.92
1837.21
1837.22
1837.21
1837.21
1837.21
1837.22
1837.21
1837.21
1837.21
1837.21
1837.21
1837.22
1967.02
1837.23
1837.21
1838.88
1838.77
2057.31
1838.67
1837.22
1837.21
1839.16
1837.21
1837.21
1838.66
2419.95
1837.22
1837.22
1839.67
1837.22
1842.92
1837.36
1838.98
1837.37
1837.22
1839.27
1839.85
1837.22
1837.22
1837.22
1837.22
1837.21
1837.23
1837.22
1837.21
1860.93
1837.22
1837.21
1837.22
1837.22
1839.19
1837.22
1837.26
1894.69
1839.62
1837.22
1837.21
1837.24
1837.4
1837.21
1837.22
1837.22
1837.22
1837.22
1837.22
1837.22
1849.73
1838.48
1837.22
1837.22
1837.55
1837.22
1837.23
1837.22
1837.22
1837.22
1838.15
1837.22
1837.21
1837.21
1837.22
2321.75
1837.22
1837.66
1837.22
1837.22
1837.22
1837.66
1837.22
1837.26
1837.21
1838.82
1837.3
1837.22
1837.22
1837.22
1837.22
2995.93
2275.23
2027.16
1837.21
1840.85
1837.91
1837.26
1837.22
1837.77
1838.24
1837.22
1837.22
1837.22
1837.25
1867.54
1837.22
1837.21
3624.65
1860.86
1837.21
1837.21
1837.21
1839.2
1847.15
1837.24
1878.42
1837.22
1837.22
1837.22
1837.22
3255.77
1837.22
1837.25
1837.21
1838.76
2199.34
1853.5
1837.22
1858.67
1854.63
1837.22
1837.24
1841.08
1853.78
1841.13
3583.86
1837.21
1837.21
1837.22
1837.22
1837.21
1837.22
1837.21
1837.26
1837.22
1837.22
1844.99
2176.65
2281.17
1837.21
1837.21
2119.77
2735.36
1837.22
2068.43
2178.78
2058.54
2066.75
1837.26
1837.21
1837.22
1837.21
1837.21
2278.78
1837.21
2065.36
1837.21
1837.21
1990.49
1837.21
2561.84
5527.89
1837.21
2527.14
1837.22
1837.21
1837.21
1837.21
1837.21
1837.21
1837.21
1837.21
1837.21
1837.22
1839.88
1837.21
1837.21
1837.21
1837.22
1837.22
1876.5
1837.21
1837.22
1837.21
1837.21
1837.21
1837.21
1837.21
1859.23
1837.22
1837.21
1837.21
1837.21
1837.21
1837.22
1837.22
2289.82
1837.21
1837.21
1837.21
2663.57
1837.21
1837.21
2722.3
1837.21
2506.93
1837.21
1837.21
1837.21
2617.86
1837.21
2613.77
2177.02
14077.5
1837.21
1837.21
1837.21
1837.21
1837.22
13256.3
1947.98
1837.22
1837.22
1843.48
1837.21
1843.2
1841.86
1837.21
1873.7
1838.23
1838.18
1837.22
1862.51
1837.21
1837.21
2859.51
1837.24
1837.22
11622.6
1837.21
1837.22
1837.22
1837.21
1949.76
1837.21
1946.66
5978.92
1837.21
1837.21
1837.22
1837.22
1837.21
1837.22
1837.22
1837.53
1947.82
1837.21
1837.21
1837.21
1837.21
1838.98
2009.31
1837.22
1837.51
1837.21
1925.91
1837.21
1850.7
1898.25
1840.36
1837.32
3305.13
1837.22
2411.64
1837.21
2015.98
1953.47
1837.21
1837.22
1837.21
1837.21
1838.3
1944.86
1934.35
1837.21
1837.21
1837.24
1931.05
1837.21
1837.22
1837.21
1837.23
1837.22
2154.73
1838.16
1837.21
1862.25
1837.21
1882.51
1837.22
1837.21
1837.21
1837.22
1837.21
1837.22
1837.22
1837.21
1837.22
1907.47
1837.21
1837.48
1837.23
1841.06
1837.22
1837.22
1841.02
1998.85
1837.25
1837.21
1837.21
1874.34
1837.52
1837.45
1837.21
1837.22
1844.29
1858.69
1837.21
1837.21
1837.21
1837.21
1837.21
1837.21
2295.96
1837.22
1837.22
1837.22
1837.21
1837.21
1837.22
1837.22
1863.76
1861.54
1837.22
1856.67
1841.94
1837.22
1837.21
1837.41
1837.21
1862.74
1837.22
1837.22
1837.22
1837.22
1837.23
1837.22
1837.21
1838.49
1837.22
1837.22
1837.22
1837.22
1837.22
1837.22
1854.58
1837.22
1837.21
1837.22
1855.31
1837.22
1837.22
1872.32
1837.21
1837.22
1877.53
1837.22
1854.51
1837.22
1837.21
1837.22
1837.21
1837.21
2031.86
1862.48
1837.22
1837.22
1837.22
1837.21
1837.21
1838.17
1837.21
1837.21
1837.21
1939.93
1837.22
2081.72
1837.22
1837.21
1837.21
1946.94
1837.22
1837.21
1837.22
1843.31
1837.39
1837.23
1837.21
1837.21
2080.78
1838.13
1862.7
1837.22
1837.22
1837.23
1837.22
1837.22
1837.22
1837.21
1837.28
1837.51
1837.22
1839.16
1837.42
1837.82
1837.22
1837.22
1837.22
1837.22
1837.31
1840.12
1837.21
1837.25
1837.36
1838.52
1837.22
1837.48
1837.22
1837.22
1862.92
1837.24
1837.22
1837.21
1837.23
1837.26
1837.22
1837.27
1837.23
1837.22
1837.21
1837.22
1837.22
1872.14
1837.29
1837.22
2466.18
1837.23
1837.22
1837.21
2448.69
1914.1
1837.21
1839.45
1837.39
1837.25
1837.21
1837.21
1837.22
1837.22
1837.21
1837.22
1837.22
1837.69
1845.43
1841.28
1842.64
1837.22
1837.21
1837.27
1837.53
1881.78
1837.22
1844.81
1837.21
1837.55
1837.37
2432.9
1837.21
2110.3
2448.04
1837.21
1837.22
1837.22
1837.21
1838.58
1837.21
1837.41
1837.21
2451.35
1837.21
1837.21
1837.21
2440.47
1837.27
1837.21
1837.22
1837.46
1837.22
1874.85
1837.4
1837.29
2449.85
2356.05
2274.45
1837.38
1873.73
1839.5
1838.56
1837.21
1837.33
1837.21
1838.91
1839.3
1837.26
1837.22
1837.21
1837.26
1851.83
1837.21
1837.26
1837.21
1841.7
1837.26
1837.22
1838.36
1837.21
1837.78
1837.21
1837.22
1837.87
1837.21
1863.12
1837.32
1962.58
1873.88
1837.8
1838.86
1837.21
1837.79
1837.21
1839.92
1837.21
1837.91
1976.22
2105.03
1837.29
1852.42
1840.35
1837.47
1839.23
1837.75
1837.22
1837.4
1840.07
2206.97
2115.57
1837.22
1840.47
1837.3
3778.8
1838.14
2082.16
1934.96
1837.41
3736.13
1837.24
1843.5
1837.34
1841.17
3993.13
1837.37
3844.83
4285.6
4087.19
1837.32
1868.17
3639.67
1837.22
1884.24
1837.94
1837.22
1837.21
1837.23
1841.14
2587.43
1837.21
1837.22
3312.34
2594.35
1839.4
1838.61
1837.4
1877.3
1848.62
3345.61
1837.86
1837.41
3047.92
2525.52
1838.33
3142.09
2399.22
1838.99
2318.06
1843.76
1840.42
1837.22
3324.61
1840.66
1837.22
1837.22
1914.49
2000.33
3102.87
3396.46
1837.28
1837.22
1956.76
9274.33
1846.39
1837.21
2410.02
10041.5
12881.7
1837.22
1839.65
1840.55
1837.22
1839.18
1868.5
1837.22
1837.25
1837.21
1837.22
1837.22
1837.27
1898.32
1837.4
1837.22
1847.04
1873.99
1837.22
1837.45
1837.22
1848.6
1843.17
1911.01
1837.22
1837.22
1852.51
1837.22
1837.27
1856.67
1837.22
1852.35
1843.81
1837.26
1837.22
1837.46
1839.77
1837.22
1837.56
1837.32
1837.22
1837.21
1837.7
1837.22
1837.21
1837.22
1837.21
1837.22
8832.17
2087.77
1837.79
1837.22
1837.92
1837.22
1844.07
1837.22
1837.21
1837.23
1837.22
1837.22
1837.22
1860.24
1873.83
1837.21
1837.22
1837.22
1837.21
1837.22
1837.23
1837.22
1964.23
1837.44
1837.22
10435.6
1837.22
1838.27
1838.07
2204.42
1837.23
11045.9
9306.33
1872.69
7994.22
1837.31
1873
1871.18
1837.22
1837.41
1845.34
1849.99
1873.26
1844.05
2834.44
1837.22
1840.36
1837.89
1840.34
1863.48
1837.24
1837.22
1872.21
1837.24
1837.22
1838.19
1837.22
1857.34
1837.22
1838.06
1839.19
1838.96
1837.38
1838.12
1837.27
1837.22
1839.81
1841.23
1837.52
1840.04
1837.71
1848.79
1837.29
1839.82
1842.72
1837.24
1837.95
1837.22
1837.23
1837.22
1837.22
1837.22
1837.22
1837.46
1837.21
1837.22
2218.4
1837.22
1837.22
1837.22
1837.21
2207.47
1883.43
1837.22
1847.45
1837.22
2052.72
1837.22
1837.22
1837.28
2047.86
1837.22
1837.32
1839.44
1837.22
1837.53
1837.57
1840.71
1844.12
1837.89
1837.21
1842.99
2084.73
1837.22
1837.63
2191.53
1924.3
1837.22
1837.89
1837.55
1857.62
1837.25
1837.56
1837.23
1837.89
2230.1
1837.83
1837.3
1871.97
1840.83
1846.92
1840.8
2049.81
1842.16
1906.31
1837.22
2180.88
1837.22
1838.82
1837.22
1837.21
1837.7
1837.21
1837.21
1840.29
1837.22
2889.8
1837.72
1837.21
1856.41
1838.16
1837.26
1837.21
1844.95
1839.39
2091.02
1837.76
1837.22
1837.21
1840.12
1837.21
1837.37
1837.64
2043.98
2790.32
1837.21
1852.39
1837.4
1881.22
1837.56
1837.33
1874.83
2031.41
1837.22
1837.22
1837.21
1839.87
2015.01
1837.21
1837.37
1838.02
2018.71
1837.22
1837.24
1837.22
2029.33
1837.53
1837.36
1837.55
1837.21
1837.22
1837.21
1837.39
1837.22
2001.37
1837.22
2430.5
2707.39
2472.53
2375.95
2422.39
1837.33
1837.41
1837.22
1837.26
1837.21
1837.21
1837.21
1838.2
1838.23
1837.21
1838.48
1837.22
1837.21
1837.38
1837.21
1837.22
1837.22
1837.21
1837.56
1838.46
1837.24
1837.24
1837.22
1854.04
1837.25
1837.23
1839.39
1837.64
1838.72
1837.21
1837.22
1837.21
1837.25
1837.22
1837.21
1837.21
1837.22
2247.01
1837.23
1837.21
1837.22
1838.37
1837.22
1837.23
1837.82
1869.04
1839.5
2077.66
1843.8
1837.22
2116.39
1972.99
1837.21
2029.58
1837.25
1862.11
1837.22
1861.24
1843.18
1837.22
1837.22
1837.21
1837.21
1837.21
1837.21
1837.49
1837.21
1837.21
1942.66
1837.21
1837.21
1837.22
1989.75
2451.07
2948.39
1837.22
1840.74
1837.59
1837.22
1837.22
1837.21
1837.29
1837.22
1837.22
1840.9
1837.21
1837.22
1837.22
1839.09
1837.22
1837.22
1837.22
1837.21
1837.21
1837.21
2030.62
1837.21
1878.22
2445.76
1885.54
1837.22
1837.21
1837.22
1837.21
1837.22
2164.29
1844.13
1845.44
1837.22
1841.03
1837.21
1840.59
1837.22
1837.22
1837.21
1837.23
1837.21
1838.46
2125.94
1837.22
1837.67
1837.21
1837.22
1837.22
1854.07
1850.1
1837.21
1837.22
2094.03
1837.21
2274.05
1837.25
1837.22
2509.9
1840.76
1852.57
1837.21
1838.59
1841.62
1837.21
2136.14
1837.22
2351.39
1837.22
1837.22
1837.21
1837.22
1837.21
2321.89
1837.21
1840.86
2585.56
1947.09
2708.67
1866.99
1837.22
1840.88
1837.21
1837.22
1837.22
3960.16
1837.49
1837.21
2588.11
1837.21
1837.76
1851.96
1869.81
1852.47
2770.11
1980.48
1837.21
2134.01
1837.22
1852.83
1987.48
2943.82
2519.16
2622.94
1852.34
1838.76
1837.22
1837.21
1837.22
1837.49
1837.23
1839.89
1837.22
1837.22
1839.3
1837.21
1978.6
1854.91
1860.13
1905.64
2613.37
2297.61
1837.26
1837.22
2075
1837.22
1837.21
1837.22
1851.91
2063.2
1837.27
1837.21
1837.33
1837.22
1837.3
1837.21
2081.56
1837.22
1837.22
1837.22
1870.73
1837.22
1854.12
1837.22
1853.53
1883.89
1837.23
1837.22
1837.22
1837.22
1837.22
1837.22
1837.28
1837.22
1837.21
1837.22
1854.8
1837.22
1837.21
1837.21
1838.96
1837.21
1837.97
1838.04
1837.21
1837.21
1841.07
1837.21
1837.22
2371.86
1874.89
1886.55
1837.22
1837.21
1837.21
1865.46
1837.22
1837.21
1837.42
1837.22
1837.21
1837.31
1837.22
1981.5
1837.99
1837.22
1838.75
2247.12
1837.22
1837.47
1837.21
1837.21
1837.22
1837.21
1837.21
1837.22
1837.22
1837.22
1837.22
1837.22
1837.22
1837.21
1837.21
1840.78
1837.21
1837.22
1837.21
1837.22
1855.08
1837.21
1837.25
1837.21
1837.21
1859.03
1837.46
1838.9
1838.46
1837.22
1856.53
1837.22
1837.21
2151.25
1837.22
2185.1
3059.56
1870.58
1837.21
1837.22
1841.32
1837.21
2289.98
1837.66
1837.21
1837.21
1839.3
2291.27
1837.22
1837.22
1837.22
2570.22
1837.21
1837.22
1837.21
1837.22
1867.07
1837.21
1949.28
1837.22
2457.66
2466.39
1837.21
1837.21
1837.21
1837.22
1837.21
1837.24
2172.28
2203.8
1837.21
1878.43
2134.92
1838.05
1837.48
1837.21
2194.05
1837.21
1837.22
1837.22
1839.25
2217.94
1837.21
1857.17
2355.87
2000.23
1837.22
1837.22
1999.59
1848.84
1837.24
1837.22
2149.57
1837.32
3525.57
1962.97
1934.94
2795.42
7457.07
1837.22
1855.51
1837.21
2175.79
1837.22
2099.91
1837.21
2214.57
1840.88
1837.22
1837.28
1837.22
1837.22
1837.22
1837.21
1837.29
1837.22
1866.46
3956.58
2542.59
2131.3
1837.21
2094.02
1935.32
2834.11
1837.22
1895.96
1837.47
3840.94
3868.08
1837.22
1837.32
2883.44
1838.04
4689.77
1868.3
3422.37
1976.51
1846.76
1837.25
2267.23
1848.62
2067.3
1842.01
2350.23
1840.28
1837.21
1842.17
1847.81
1935.43
1996.54
1837.27
2676.31
1837.22
1838.17
1842.91
1837.24
2289.85
2037.59
1854.4
1837.22
1837.21
1837.65
2000.12
1837.21
1840.27
3189.08
1837.21
2171.87
1837.22
1837.22
1837.22
1841.37
1993.63
2881.74
1837.21
1837.21
1837.21
1837.23
1837.21
1837.22
1837.22
2457.91
1837.22
1837.21
2843.86
1837.22
2597.51
1837.22
1837.22
1837.21
3048.23
1837.21
1837.26
1837.22
1837.28
1837.21
1837.21
1837.21
1837.29
1837.21
1837.43
1837.21
2780.91
1837.21
1837.22
1837.22
1837.22
1837.21
1837.22
1837.55
1837.22
1837.22
1837.21
1837.23
1837.21
1837.21
1837.21
1837.27
1837.21
1837.21
1837.21
1837.22
1837.22
1837.22
1840.85
1838.42
1837.21
1837.21
1837.21
1837.21
1837.22
1837.21
1837.21
1837.21
1837.21
1837.21
1837.21
1837.21
1837.21
2127.05
1837.21
3959.96
1837.22
1837.21
1837.36
1959.09
1837.21
1837.21
3644.45
4057.89
1837.22
1837.23
5320.15
1837.22
1837.21
5075.93
1837.22
2102.65
1837.22
1837.21
1837.21
1837.21
2181.77
1837.21
2237.28
1837.22
1837.21
1837.22
1837.21
1837.25
1837.21
1837.23
1837.21
1981.86
1837.21
1837.21
1837.22
1837.24
1837.21
1837.22
1837.21
1837.21
1837.21
1837.21
1837.21
1837.21
1837.21
1837.21
2589.2
1837.21
1837.22
1837.22
1837.22
1879.53
1837.21
1988.01
2225.77
2398.52
1837.22
1837.22
1837.22
1837.22
1837.22
1837.36
1837.22
1837.21
1837.86
1837.22
1837.23
1837.22
1837.21
1837.27
1837.21
1837.21
1837.24
1837.21
1837.21
1837.21
1837.22
2126.58
8393.89
1837.21
1837.22
1837.22
1837.22
1837.22
1837.4
1837.21
1837.22
1837.22
6299.69
1837.22
1837.22
1837.21
4948.91
1837.21
1837.22
1837.22
1837.22
1837.21
1837.21
1837.21
1837.22
1837.21
1837.22
1837.22
1837.4
1837.21
1837.22
1837.22
1837.22
1837.21
1837.22
1837.22
1837.83
1924.55
1837.21
1837.22
1934.72
1837.22
1837.22
1837.21
1837.55
3844.25
1837.22
1838.37
1837.21
1837.22
1837.21
1837.22
1837.22
1837.22
1837.22
1837.23
5608.68
1837.21
1837.21
4481.65
4468.93
1839.35
1837.22
1837.22
1837.22
1837.22
1837.22
1837.21
1837.22
2157.49
1837.22
1837.22
1837.22
1837.22
1837.22
1837.21
1837.21
1851.81
1837.21
1837.22
1837.21
1837.22
1837.22
1886.85
1837.21
1837.22
1837.21
1837.22
2228.75
1866.59
2201.12
1837.22
11436.6
1837.22
1837.21
2074.5
1837.22
2076.07
2106.71
1837.21
1837.22
1837.24
1846.83
1837.21
1837.22
2177.28
1837.21
1837.67
1837.22
1837.21
1837.25
1837.22
1837.21
1837.22
1838.47
2073.37
2354.28
1837.21
2310.66
2311.04
1837.21
1936.76
1837.22
1837.22
1837.22
1837.21
1837.22
1837.21
1837.22
3626.95
1838.27
1837.21
2321.72
1837.22
1837.21
1837.22
1837.22
1837.22
1837.22
1837.21
1837.24
1837.22
1837.21
1837.22
1837.41
1837.22
1837.22
2349.24
2328.78
4927.2
1840.76
1837.22
1837.22
1837.21
4964.51
1837.22
1837.22
1837.21
1837.22
1837.21
1837.22
1837.22
1838.21
1837.22
1837.22
2074.15
1837.21
1837.22
1837.22
1837.21
1837.21
1837.21
5537.35
1837.23
2416.13
1837.22
1837.21
1837.22
1837.23
1837.31
1837.72
1837.22
4843.69
5694.03
1837.22
1930.23
1837.21
1931.21
1837.22
1837.22
1837.22
1837.22
1837.66
1837.21
1837.21
1837.22
1837.22
1837.21
1837.22
1837.22
1837.22
1837.22
1837.22
1837.21
1837.23
1837.22
1837.21
1837.22
1837.22
1837.25
1837.22
1837.21
1837.22
1837.22
1838.81
1837.22
1837.22
1837.23
1837.23
1837.21
1837.22
1837.25
1837.22
1838.4
1837.21
1837.22
1837.3
2364.48
1837.21
1837.24
1837.21
1837.24
1837.22
1840.52
1837.22
1837.24
1841.04
1865.95
1837.21
1837.22
1837.22
1837.22
1837.22
1837.28
1837.21
1837.21
1837.23
1837.42
1837.22
1837.22
1837.22
1837.22
1837.22
1837.21
1837.22
1837.23
1837.21
1837.21
1837.21
1837.21
1837.21
1837.21
1837.21
1837.21
1837.21
1837.22
1838.14
1837.21
1837.83
1837.21
1837.21
1837.22
1969.68
1987.7
1837.44
1837.21
1837.21
1837.22
1837.21
1837.22
1837.23
1837.22
1837.32
1837.21
1837.21
2026.19
1837.23
1837.21
2037.52
1837.21
1837.21
1837.23
1837.21
1837.22
1837.21
1837.21
1837.31
1837.22
1837.23
2030.76
1837.21
1837.21
1837.21
1979.76
1837.22
1837.22
1837.24
1837.22
1837.21
1837.22
1837.22
1837.21
1837.22
1837.21
1837.21
1837.22
1837.22
1837.21
1837.22
1837.21
1838.6
1837.22
1837.21
1837.22
1837.22
1837.22
1837.21
1837.22
1837.22
1837.22
1837.22
1837.21
1837.21
1837.21
1837.21
6222.65
1837.22
1837.21
1858.25
1837.22
1837.21
1837.21
1837.21
1837.22
1837.22
1837.22
1837.21
1837.21
1837.21
1838.15
1858.28
1838.58
1837.21
1837.21
1852.95
1852.96
1838.55
1837.21
1837.22
1837.21
1837.45
1837.21
1837.65
1837.25
1837.22
1852.75
1837.21
1837.22
1857.04
1837.22
1837.22
1837.22
1837.22
1837.21
1837.22
1837.21
1837.22
1837.23
1837.22
1837.21
1837.22
1837.21
1837.21
1837.21
1837.22
1837.21
1837.22
1837.26
1837.22
1837.21
1837.22
2085.19
1837.22
1837.22
1837.21
1837.22
1837.22
1837.21
1837.21
1837.21
1837.22
1837.22
1837.23
1837.21
1837.21
1837.22
1837.21
1837.21
1839.85
1837.22
1839.52
1837.21
1837.21
1837.21
1839.99
2315.15
3460.8
1837.21
1837.22
1837.21
1837.21
1837.22
1837.27
2085.37
1837.21
1874.77
2353.03
1837.21
1837.22
2311.6
1837.21
1837.21
1837.21
1837.22
1837.21
1837.21
1837.21
2385.69
1837.21
1837.22
1837.21
1861.38
2443.19
2016.69
1837.21
1837.21
1837.22
1837.22
2448.32
5625.22
1837.21
1837.21
1837.21
1837.21
1837.21
1837.22
1837.21
1837.21
1837.21
1837.26
1837.21
2003.87
1837.21
1837.21
1837.21
1838.59
1837.21
1838.76
1838.37
1837.21
2354.79
1837.21
1838.04
1837.21
8610.4
1837.21
1837.21
1837.21
1837.21
1909.55
1837.22
1837.22
1837.22
1837.21
1837.21
1837.21
1837.22
1837.21
1947.78
1837.21
2111.46
1837.21
1897.54
1837.21
1837.22
1837.21
1837.22
1837.22
1837.21
1837.22
1837.22
1837.22
1837.58
1837.21
1837.22
1837.21
2033.5
1837.22
1837.21
1837.22
1837.21
1837.22
1837.21
2001.35
1837.21
1837.23
1837.23
1837.23
1837.22
1837.21
2045.1
1837.21
1837.21
1837.21
1837.21
1837.21
1837.21
10701.9
1837.22
1837.21
1837.22
1837.22
1837.21
1837.21
2023.25
1837.21
1837.47
1837.3
1837.79
1837.22
1837.22
1837.21
1837.21
1837.22
1837.22
1837.21
1837.22
1837.32
1837.21
1837.21
1837.22
1837.87
1837.21
1837.21
1837.22
1837.22
1837.54
1837.21
1837.46
1837.22
1837.23
1837.22
1893.04
1837.26
1837.24
1837.21
3460.84
1837.21
1837.21
1837.27
1837.21
1837.22
1837.24
1837.21
1837.22
1837.22
2670.51
1837.22
1837.21
1837.22