/*--------------------------------*- C++ -*----------------------------------*\
| =========                 |                                                 |
| \\      /  F ield         | OpenFOAM: The Open Source CFD Toolbox           |
|  \\    /   O peration     | Version:  v2012                                 |
|   \\  /    A nd           | Website:  www.openfoam.com                      |
|    \\/     M anipulation  |                                                 |
\*---------------------------------------------------------------------------*/
FoamFile
{
    version     2.0;
    format      ascii;
    class       volScalarField;
    location    "1.5";
    object      H2O;
}
// * * * * * * * * * * * * * * * * * * * * * * * * * * * * * * * * * * * * * //

dimensions      [0 0 0 0 0 0 0];


internalField   nonuniform List<scalar> 
108993
(
0
7.59072e-247
2.46045e-46
0
6.76982e-71
0
1.44522e-242
1.16878e-97
7.40916e-09
0
0
1.60127e-75
0
0
4.03902e-133
6.81982e-97
0
9.24778e-152
1.20499e-46
0
1.3579e-105
4.01634e-22
1.81857e-281
0
1.58252e-56
0
1.06021e-05
1.51794e-290
0
5.73289e-83
0.00797967
0
3.14263e-07
1.88576e-111
0
0
4.90459e-06
0
0
0
0
1.50221e-27
0
1.74194e-51
0
2.15093e-232
2.3588e-08
0
0
0
1.92728e-10
0
0
1.30714e-11
2.77681e-152
4.41402e-106
1.24963e-10
0
3.47698e-41
6.7229e-53
0
1.139e-44
0
0
2.5878e-51
0
2.86929e-57
1.25932e-50
0
6.6672e-153
0
0
2.2498e-65
5.93814e-55
4.10031e-299
0.0634148
0
0
2.25112e-15
1.04905e-57
0
0
4.87563e-31
6.42663e-65
9.54418e-152
4.24189e-120
0
0
1.628e-65
0
0
0.0202242
1.89048e-59
0
0
3.17054e-107
0.00984137
0
0.01301
0
0
0
8.61671e-109
0
8.52934e-61
3.76984e-60
0
1.16813e-32
1.99965e-33
1.01198e-232
5.36988e-184
7.10269e-57
0
0
5.77206e-32
9.04635e-242
0
3.47722e-46
0
0.0251732
1.56111e-141
0
4.23618e-268
6.78057e-51
0
0
0
3.67002e-68
4.95237e-26
6.99214e-28
5.40714e-97
2.18434e-29
2.01186e-33
4.09682e-159
2.36951e-31
1.58035e-34
4.20694e-27
3.28437e-40
1.99639e-73
0
7.97781e-47
1.51076e-05
0
1.47314e-27
2.74915e-26
2.16933e-69
2.61791e-54
4.70402e-267
6.98812e-49
0
0
0
3.66565e-243
0
2.77451e-30
3.84384e-214
5.28732e-86
0
1.16117e-07
0
0
1.28576e-09
0.028634
3.72615e-107
0
9.09969e-194
0
0
0
1.01156e-39
5.0518e-46
6.60983e-99
0
1.06035e-53
0
8.89318e-323
2.83809e-184
0
4.15562e-31
0
0
6.70237e-26
0
2.63124e-51
4.87184e-114
3.04112e-82
3.70651e-24
5.20608e-123
0
0
0
2.18469e-16
0
0
5.31481e-36
7.49669e-52
3.51611e-261
0
1.01301e-54
1.17445e-49
1.37752e-72
1.87823e-187
9.8989e-110
5.41231e-19
0
0
4.68393e-17
0
2.64943e-30
1.3981e-192
0
0
2.36383e-182
0
5.08467e-192
8.80487e-61
0
3.61312e-11
1.70799e-13
6.90849e-09
4.66596e-320
4.47384e-202
2.79919e-74
2.60582e-188
0
0
1.55294e-14
9.3459e-19
0
0
4.08518e-193
0
0
0
5.17287e-16
0
2.73875e-09
0
0
8.37167e-12
1.38086e-10
1.69697e-19
0
3.59644e-13
0
1.07121e-90
0
4.15057e-263
0
1.24697e-23
0.0335091
1.89786e-43
9.18455e-15
0
1.47105e-18
0
2.28015e-18
2.33753e-61
0.000348445
0
2.61547e-13
0
0
5.56071e-107
5.4653e-24
0
3.28613e-15
4.39055e-313
0
5.12208e-27
3.85816e-83
9.15095e-38
3.38499e-289
0
0
4.28812e-32
0.000851536
0
0
1.07528e-279
0
1.07382e-227
4.80269e-224
0
3.53898e-17
0
0
0
6.84802e-71
4.89735e-286
2.34266e-141
1.6316e-08
0
9.37341e-09
0
0
0.0598406
1.02071e-11
0
2.86862e-90
0
0
5.96631e-63
0
4.06623e-18
0
0
0
1.27617e-320
0
0
0
0
0
0
4.33085e-222
0
1.78995e-114
0
3.6272e-17
0
0
2.43574e-320
4.94066e-324
0
0
5.85973e-198
0
2.35567e-05
1.06364e-52
7.96434e-321
4.5337e-235
6.28716e-135
1.1361e-09
0
1.33277e-96
1.64773e-25
0
4.89909e-27
2.94713e-17
3.87627e-18
2.67796e-253
0
0
0
0
2.33813e-27
0
4.30665e-27
7.00941e-29
1.56301e-14
0
0
0
0
3.20645e-50
4.08165e-44
2.30988e-254
0
0
2.04659e-80
0
1.14771e-25
4.66825e-25
9.61259e-303
5.59891e-274
6.47374e-22
7.55644e-17
0
1.93823e-188
7.00203e-217
6.7297e-97
1.55242e-27
0
0
0
0
8.52942e-22
0
1.68502e-57
0
1.07101e-222
0
4.76198e-101
0
0
0
3.03541e-156
0
4.95565e-270
0
9.48459e-302
2.96165e-225
0
0
0
3.76836e-192
3.96592e-24
4.84373e-110
1.14112e-09
0
0
1.63423e-270
1.93217e-21
0
1.47971e-304
1.61739e-291
1.34377e-64
1.80671e-53
1.15403e-200
2.77854e-148
1.07593e-285
0
0
4.10427e-91
2.3511e-08
0
8.5375e-156
0
3.12931e-83
2.04221e-197
5.84169e-249
1.30738e-197
0
2.02532e-67
0
1.39671e-89
0
1.29935e-205
7.9408e-86
8.91766e-189
0
1.39833e-191
7.64931e-26
0
0
0
1.80971e-319
0
1.34277e-05
1.21361e-118
1.11635e-17
2.10353e-27
0
0
5.58575e-211
4.76216e-221
4.153e-176
1.29276e-19
0
0
0
1.26709e-21
0
0
6.63929e-119
0
0
0
3.79351e-28
0
3.62244e-45
0
1.63679e-207
2.2675e-141
1.9236e-35
0
0
3.71078e-37
1.65767e-44
2.5202e-167
9.96478e-69
1.16782e-06
1.08104e-229
0
0
0.000189343
0
1.27912e-297
3.85662e-105
3.9568e-53
0.00591942
1.86839e-05
5.43596e-22
3.28742e-66
5.03954e-42
4.8461e-38
1.53638e-39
0
9.22165e-107
0
1.23316e-79
0
1.96226e-44
1.69575e-112
1.93703e-79
1.53062e-65
1.37974e-22
1.63434e-26
0
6.24378e-36
0.00302831
0
1.04968e-29
5.40156e-138
8.36547e-225
4.44637e-25
0.000157157
2.45598e-162
2.52908e-25
0
0
0.0561552
0
2.03704e-23
5.20772e-19
0
1.46321e-21
0
0
0
0
0
0
0
2.54224e-125
0
3.43173e-28
6.57857e-128
0
0
0
8.0978e-123
0
3.65468e-67
3.47216e-30
0
4.6702e-99
3.51147e-123
0
1.76445e-87
0
6.99861e-86
0
0
1.77537e-27
0
4.052e-125
2.21295e-44
6.18575e-15
0
0
1.01091e-215
0
0
5.51095e-85
3.60155e-06
1.816e-251
2.62572e-177
0
1.46091e-101
0.0360169
3.74088e-43
3.6045e-234
0
2.38896e-247
1.61523e-97
0.000321767
4.04144e-254
0
0
0
0
0
0
1.32093e-231
0
5.87536e-195
3.72369e-202
0
0
6.66195e-84
1.18261e-32
0
0
4.9173e-126
1.10762e-229
0
0
0
0
4.00189e-111
1.8889e-286
3.4784e-25
0
7.01332e-21
2.45102e-09
4.70979e-114
2.35658e-242
1.95342e-135
3.95982e-29
8.82504e-75
0
0
0
1.55974e-118
0
4.2831e-115
9.32718e-103
2.01521e-55
6.81902e-135
3.09568e-59
0
5.26537e-53
0
1.23899e-32
8.03573e-79
2.31298e-116
0
4.66559e-14
7.01575e-172
1.702e-12
0
2.30875e-263
2.85421e-270
3.40037e-47
0.00517215
0
0
2.08688e-90
0
0
1.79953e-249
6.12454e-173
5.97965e-86
0
3.2954e-110
8.06288e-197
1.37425e-118
0
0
0
2.30206e-25
0
2.16495e-08
9.11274e-88
9.5629e-91
2.754e-196
0
9.2147e-88
1.26185e-85
0
2.04768e-284
0
0
7.45385e-284
2.02138e-116
5.77102e-223
1.00013e-164
6.97731e-221
4.79718e-229
0
4.83208e-106
9.856e-07
0
0
2.46731e-310
1.17399e-102
0
2.4301e-291
1.29622e-106
0
0
0
0
1.38441e-49
6.39481e-191
0
0
2.70931e-255
0
7.28606e-190
7.18572e-132
0
5.57412e-279
0
4.87021e-154
0
0
0
0
9.22838e-34
0
0
9.32288e-316
1.91829e-150
0
0
0
0
1.38474e-199
4.52653e-08
0
0
3.32453e-112
1.86545e-87
5.10044e-142
2.55915e-273
3.25033e-11
0
0
8.79358e-288
1.09826e-195
0
1.70139e-184
2.6486e-63
0
7.06145e-118
0
0
0
6.31446e-82
0
2.33673e-91
6.54267e-137
1.85356e-91
0
0
6.24734e-259
0
0
3.63911e-83
1.1532e-98
1.19886e-88
1.27614e-88
7.04652e-87
2.82999e-209
0
9.53567e-36
1.09159e-261
0
3.08945e-92
0
1.01816e-246
1.79304e-79
0
5.95856e-81
5.08558e-80
2.43749e-83
0
1.92745e-91
0
0
2.00449e-76
0
0
0
5.73626e-84
6.87772e-113
0
1.16483e-73
0
1.58159e-76
1.42021e-66
0
0
4.38677e-273
0
0
3.62286e-21
2.40494e-68
0
3.79826e-25
2.53791e-243
0
0
0
0
0
0
3.38311e-32
2.88113e-117
0
1.01768e-72
2.36218e-220
1.72485e-295
6.11215e-210
0
6.57075e-24
7.45594e-158
4.46749e-13
7.60922e-239
2.10674e-14
1.23224e-50
5.04002e-216
9.92323e-100
0
4.56333e-255
0
2.39357e-74
1.71025e-211
5.4641e-109
0
0
3.53094e-102
0.0384026
0
0
8.93096e-38
1.88725e-20
9.71631e-57
0
0
2.34471e-154
1.01823e-38
0
6.42285e-323
0
5.27095e-149
1.47726e-320
4.33819e-158
0
7.52787e-130
0
2.50941e-190
0
0
3.1079e-142
0
1.70711e-263
0
0
0
3.77659e-52
1.04444e-143
0
1.96456e-59
0
9.61169e-204
7.4845e-62
0
0
0
2.49056e-72
2.93484e-318
2.93812e-142
0
0
1.67837e-184
1.56505e-63
8.90324e-182
5.70079e-69
2.63673e-187
4.31381e-66
0
0
6.57621e-104
0
0
2.48228e-306
2.01669e-309
0
0
0
0
0
4.62104e-79
4.00004e-116
9.24003e-101
5.98674e-105
8.39899e-51
1.12678e-24
6.57038e-107
1.85509e-212
2.91011e-33
0
0
2.31662e-184
0
0
5.91036e-215
8.53996e-207
0
5.45877e-167
1.44997e-252
3.28312e-135
0
1.06338e-134
4.51337e-244
6.27011e-204
1.34303e-36
1.83434e-14
8.06385e-93
1.49066e-118
3.89334e-216
0
0
3.34678e-116
0
0
4.00127e-133
1.54923e-209
0
2.56184e-134
0
0
1.14644e-142
0
3.31456e-292
0
1.02981e-99
0
5.55551e-100
1.52835e-183
1.48755e-138
4.97206e-66
1.91255e-136
1.14142e-108
0
3.67647e-278
1.92102e-131
0
0
0
3.01874e-25
2.66396e-85
2.60372e-280
0
0
0
0
0
9.83978e-169
2.91925e-126
3.90965e-88
0
1.88567e-19
2.421e-223
9.11646e-107
1.78405e-182
0
7.18098e-270
0
0
4.32509e-190
0
0
0
0
0
0
0
0
0
1.6833e-129
3.45101e-126
4.03125e-240
6.75294e-109
4.63642e-162
0
0
9.15837e-221
9.7064e-255
0
2.56046e-112
0
0
0
0
2.1725e-222
0
0
0
0.00708301
0
0
0.00635341
0
2.61476e-14
0
6.94158e-68
2.02469e-40
1.47143e-65
0
2.49737e-58
1.73027e-63
3.86804e-306
0
0
0
3.81853e-151
7.10747e-41
0
3.07722e-49
3.77533e-303
0
1.4822e-323
0
0
0
3.25175e-302
1.30605e-65
0
0
0
0
0
2.53758e-63
0
0
1.58554e-201
7.93375e-123
3.20952e-194
0
2.92471e-68
4.95197e-66
2.39925e-88
2.21122e-93
0
0
0
2.4239e-45
0.00323303
1.25294e-241
0
0
9.00057e-26
0
0
0
0
0
0
7.98609e-27
1.86206e-231
0
0
9.75637e-21
0.0541998
0
2.55453e-97
0
9.00504e-39
1.46693e-111
3.50421e-85
1.06207e-21
2.66568e-233
0
0
0
0
4.1872e-112
2.60825e-112
5.66227e-205
0
0
5.48355e-97
5.54433e-84
2.83292e-186
2.56652e-100
0
0
0
2.95026e-81
0
4.37127e-110
1.02182e-58
6.06895e-111
2.5745e-210
8.82822e-107
2.02258e-117
1.23115e-121
0
0
2.48929e-16
0
0
5.00826e-17
0
1.41231e-61
2.43141e-107
1.02204e-157
0
0
2.54623e-108
0
1.17038e-25
1.36828e-164
0
0
6.55846e-109
5.28556e-63
6.98109e-111
0
2.9672e-91
0
2.45356e-112
5.75018e-59
5.39794e-272
0
1.33709e-50
7.06489e-53
0
1.48566e-38
0
0
4.84941e-164
0
2.72674e-55
0
0
3.72041e-116
0
8.201e-116
1.64749e-67
3.32676e-61
1.68472e-14
5.59844e-63
9.37756e-61
1.37488e-85
2.43235e-43
0
1.02376e-22
8.93922e-71
2.36119e-118
4.92802e-58
9.93011e-164
0
9.67394e-211
0
8.72381e-59
0
2.8947e-83
0
0
9.93421e-53
0
2.66404e-47
2.05617e-61
6.59844e-163
0
1.57517e-228
0
0
0
0
1.9561e-203
0
0
8.60997e-57
2.14166e-10
0
0
5.34782e-17
2.5434e-313
0.000151042
0
0
9.15235e-19
0
1.5316e-322
2.26997e-115
1.92304e-287
1.90624e-309
0
0
3.68537e-222
0
4.68368e-218
3.74815e-108
0
0
0
0
7.19784e-182
9.81418e-297
7.36041e-301
1.57353e-303
8.38792e-179
7.40378e-196
2.70875e-05
0
2.08798e-37
2.02229e-124
0
4.72915e-298
3.77199e-88
0
1.1763e-66
0
0
1.74951e-54
0
0
1.39566e-113
1.67927e-16
0
8.80367e-117
0
0.0472056
0
2.99737e-76
0
6.95932e-148
0
8.2493e-265
1.05347e-59
0
3.19262e-66
4.6265e-162
0
1.99539e-272
0
1.33317e-122
1.73104e-78
0
1.68549e-122
0
0
8.41668e-34
3.69973e-92
0
3.85337e-46
1.70033e-112
0
5.94327e-34
3.19441e-110
0
7.92633e-232
2.81133e-36
2.16827e-12
2.01308e-215
5.39355e-61
2.50889e-259
0
1.87461e-07
0
5.14488e-98
0
0
1.54062e-106
0
5.29525e-207
0
0
0
4.19224e-102
1.70524e-258
0
0
1.91551e-13
0
0
0
0
4.34788e-191
3.13364e-200
0
0
8.13368e-52
8.85527e-111
5.66515e-77
0
0
0
0
4.82449e-294
5.2958e-14
0
0
0
0
0
0
2.58066e-73
2.97279e-07
5.08739e-20
1.5296e-290
1.657e-20
0
0
1.712e-137
8.17103e-43
0
0
2.19202e-88
0
0
1.29466e-16
0
0
0
0
2.82645e-201
0
8.90633e-294
1.47861e-315
1.05981e-119
4.09304e-84
3.005e-256
0
0
2.66434e-81
5.32519e-86
0
0
2.9163e-200
8.10733e-84
1.77283e-149
4.56475e-80
0
8.8258e-165
0
8.84459e-08
0
4.95929e-32
0
0
1.28421e-05
3.38907e-73
0
0
0
0
0
0
1.6124e-265
0
2.63548e-274
1.20025e-12
0
0
0
0
9.79812e-288
1.35143e-259
0
1.05345e-102
0
0
1.91505e-64
2.33823e-116
1.35981e-78
1.62299e-102
4.05516e-97
2.177e-249
0
5.09767e-19
9.63417e-08
0
2.47135e-122
0
5.90246e-66
1.59479e-65
0
0
7.85301e-126
6.73354e-06
0
0
0
7.60645e-105
5.64028e-62
0
3.66276e-51
2.50329e-249
0
4.18113e-120
0
2.86766e-119
0
0
4.23484e-192
0
2.8407e-123
2.34465e-177
0
1.54396e-52
5.06797e-135
0
2.07844e-121
0
0
0
0
0
4.29608e-134
5.07724e-137
0
0
0
0
0
0.000193439
0
0
0
0
0
0
0
0
4.04294e-170
0
0
3.12191e-121
3.93684e-286
0
0
0
0
0
8.37002e-168
0
0
0
5.68512e-254
1.29598e-177
1.58075e-288
1.32294e-274
0
8.95554e-141
0
8.97012e-206
8.63978e-129
0
4.38699e-85
3.21243e-145
8.31604e-28
0
0
0.0464502
1.6843e-12
1.54822e-06
0.0122775
0
3.79001e-271
0
5.38474e-281
0
0
4.98046e-318
0
0
0
4.83743e-27
0
2.49329e-145
0
3.04334e-20
1.22987e-292
3.77177e-172
2.03026e-239
0
0
2.49828e-21
0
6.7209e-80
0
3.67538e-207
0
4.47116e-261
0
6.96631e-84
0
1.05062e-208
0
2.17937e-65
0
0
0
6.91445e-199
0
0
0
0
0
0
1.52622e-57
0
0
3.53695e-68
2.45666e-234
1.90123e-53
1.38487e-231
0
1.99489e-113
0
0
6.5176e-131
0
1.98773e-170
2.87603e-21
0
9.64864e-63
3.31783e-23
2.76104e-28
1.05404e-26
0
3.56117e-60
0
1.54816e-123
0
0
0
5.32975e-16
1.96686e-215
1.73372e-208
1.66033e-16
0
0
4.53775e-80
0
4.66027e-280
4.60833e-222
0
3.89906e-42
9.71095e-189
0
0
1.29787e-318
0
0
0
0
0
1.05149e-219
0
8.3564e-318
1.02941e-239
0
1.38394e-240
0
4.51732e-202
1.38977e-270
0
0
0
1.77204e-219
0.00251829
5.3548e-05
0
0
4.88461e-255
8.74084e-226
5.04332e-17
0
6.04862e-275
2.12035e-99
0
2.06618e-106
7.99369e-102
0
0
0
0
3.46058e-226
0
3.66769e-151
0
4.45836e-253
1.87459e-71
1.48034e-278
5.57902e-112
1.25941e-103
0
1.53383e-101
0
0
1.14389e-99
1.30553e-96
0
0
3.21456e-153
2.55233e-213
0
0
1.34172e-179
1.03949e-97
4.59218e-92
1.94157e-300
0
1.15726e-31
1.05391e-117
0
3.82426e-172
4.78794e-194
0
0
0
1.00569e-94
0
0
1.20255e-202
0
0
0
0
0
0
4.14689e-190
5.54392e-69
0
0
4.02591e-67
1.00927e-146
0
0
0
4.41392e-156
1.63368e-221
0
0
0
0
8.53298e-259
9.27531e-228
0
0
0
3.87786e-51
0
2.94472e-281
4.09291e-115
0
6.01386e-28
0
2.94082e-192
5.47931e-298
8.14274e-207
8.06478e-216
7.33148e-278
0
0
2.14489e-197
3.46746e-153
0
9.06864e-139
1.11919e-142
9.29132e-134
1.50596e-162
0
2.11301e-141
9.37252e-126
0
6.36679e-314
1.66462e-242
0
2.62548e-256
0
0
1.34638e-213
0
2.62988e-73
1.77891e-236
0
0
0
0
5.39528e-177
0
4.14147e-79
0
4.68754e-210
8.52291e-254
7.84648e-110
6.0251e-111
0
0
1.22904e-174
0
0
0
0
3.89858e-51
0
7.97008e-190
1.6287e-205
0
3.40284e-115
0
4.70617e-139
0
6.85595e-211
1.09201e-205
0
0
0
0
2.06119e-100
8.4449e-209
0
0
3.11123e-138
3.12503e-198
0
0
1.81086e-242
2.38542e-233
2.881e-70
0
3.71232e-160
1.21294e-153
0
0
3.46774e-45
2.03096e-27
0
0
0
1.48008e-146
0
0
0
0
0
0
2.01229e-207
1.58765e-144
2.83165e-95
0
0
0
1.32837e-70
0
0
0
3.32358e-127
0
4.66539e-254
0
0
0
3.4471e-176
5.1852e-209
2.80785e-13
1.42515e-136
1.87472e-184
0
0
1.85955e-25
0
4.95199e-142
0
0
8.98266e-164
2.1061e-253
3.04141e-54
0
6.2472e-48
8.48854e-24
0
0
0
4.26856e-245
5.63883e-224
0
2.50846e-274
0
9.54132e-251
0
1.9997e-52
4.46655e-94
3.51089e-77
2.73591e-238
0
4.76162e-78
1.54105e-16
0
5.64073e-87
0
2.25056e-89
3.44186e-90
2.45e-180
1.37183e-283
0
0
1.50125e-230
4.01079e-47
0
2.21933e-92
0
0
0
0
5.27899e-22
1.08214e-11
0
6.74607e-31
1.41543e-245
0
7.84325e-282
6.19071e-282
1.13666e-286
2.40195e-279
0
0
2.35221e-277
0
6.16195e-147
0
1.15398e-283
0
0
0
0
0
0
0
0
5.64659e-261
1.8143e-289
0
1.52426e-67
0
0
3.69703e-252
0
0
0
1.6306e-213
6.84365e-60
0
0
2.16074e-275
1.61045e-84
0
0
2.20472e-61
4.59306e-259
8.38158e-91
0
0
0
3.38184e-82
0
6.55716e-83
5.79262e-23
0.00245247
0
1.59532e-307
0
0
0
0.00465457
0
0
2.67339e-267
2.61177e-125
0
0
0
0
1.80271e-39
1.68293e-220
1.39726e-217
0
9.49153e-34
0
1.08423e-287
5.56131e-32
0
1.39606e-191
0.00190798
0
0
3.88678e-254
0
0
3.53687e-303
1.04714e-87
5.79073e-10
0
2.95243e-215
0
0
0
0
5.19458e-243
0
0
2.54838e-253
0
1.72244e-219
2.78957e-278
0
2.4109e-96
0
0
0
1.38334e-91
3.78961e-261
0
5.1532e-61
1.37106e-122
0
6.98562e-11
5.2248e-220
2.44792e-16
3.24795e-250
1.13077e-16
0
0
6.23993e-245
0
0
3.97421e-149
0
0
0
0
3.16031e-184
1.904e-120
0
0
0
9.07113e-207
1.70992e-281
1.75097e-107
6.78061e-145
0
5.68541e-32
4.50579e-259
1.77503e-29
0
1.74554e-300
1.40271e-316
0
0
9.34479e-175
1.34353e-192
0
0
1.43066e-23
0
0
1.97409e-152
0
0
1.50438e-263
0
5.88507e-25
1.98067e-117
4.01681e-278
2.26056e-276
7.78257e-25
2.15714e-163
6.95504e-205
0
0
8.421e-41
0
0
5.56374e-272
1.29586e-270
0
0
0
4.37852e-36
6.49323e-220
1.33639e-223
8.85883e-231
0
0
1.7268e-208
0
0
9.57841e-35
0
2.91391e-42
1.15115e-42
0
9.53239e-261
9.99751e-164
0
2.1505e-109
0
0
5.03705e-175
1.58444e-207
0
3.12191e-156
0
0
1.73488e-172
0
6.72291e-151
1.10067e-153
0
1.83982e-142
0
2.38928e-175
0
1.14004e-212
2.30287e-108
7.89799e-149
0
0
1.26455e-281
3.85828e-148
0
5.01808e-159
2.76884e-103
1.63995e-242
0
2.28505e-173
3.55283e-285
0
0
0
0
0
7.49045e-188
0
3.07595e-241
0
0
0
0
0
3.05377e-259
0
4.16395e-186
0
0
0
4.75055e-142
0
7.04552e-184
1.48753e-148
2.11052e-101
2.25219e-195
0
0
2.27647e-38
6.62543e-67
0
1.78528e-209
5.54674e-209
5.87807e-139
0
1.94212e-218
0
0
0
0
2.20918e-216
6.1875e-76
0
1.51677e-165
3.87826e-212
1.70396e-222
2.46354e-221
6.8984e-265
0
2.50839e-141
0
1.40159e-253
3.31942e-124
2.13475e-133
1.13793e-213
3.05562e-292
2.11272e-169
1.35915e-294
2.28578e-156
1.04989e-133
0
0
6.50948e-236
0
0
0
0
0
0
0
0
0
9.65657e-118
3.22984e-149
0
0
0
2.14841e-295
0
0
0
0
0
5.83739e-289
0
0
1.58156e-225
0
0
1.53362e-174
0
3.94655e-122
0
0
9.34305e-163
0
0
0
1.3877e-256
2.05869e-115
1.07939e-184
1.17802e-136
0
0
0
0
0
1.82535e-30
0
0
6.13142e-184
1.49746e-265
0
0
0
0
1.50949e-241
0
0
1.85297e-249
0
1.60478e-79
0
0
0
0
0
8.20015e-42
0
0
5.30449e-80
1.5902e-82
6.88469e-80
3.06267e-91
3.58214e-84
3.59395e-134
1.16969e-117
0
0
0
1.98605e-130
0
0
0
1.12879e-240
0
0
0
0
0
9.19634e-143
0
2.19083e-199
0
0
0
0
0
0
4.60879e-249
4.31245e-119
0
8.5987e-90
0
0
2.24936e-120
0
0
2.08692e-260
3.09583e-104
1.72075e-253
0
0
1.36342e-40
4.50017e-131
0
5.84562e-80
0
0
3.27308e-253
1.44176e-237
0
2.29003e-129
3.9859e-40
2.37793e-39
9.1825e-244
3.1504e-84
7.03889e-186
6.7822e-30
3.37393e-126
0
5.01017e-28
2.3275e-265
6.0338e-31
2.50792e-219
1.34058e-79
0
8.87332e-85
9.61941e-27
0
1.03559e-29
8.318e-34
6.28752e-35
0
0
2.23996e-16
7.57619e-173
0
4.81164e-108
0
0
0
5.00169e-92
0
1.49158e-320
0
4.21382e-37
0
6.54384e-129
0
8.46941e-115
2.92053e-45
3.7012e-83
4.11426e-39
3.17952e-108
1.78483e-159
2.23042e-45
7.10003e-52
0
1.82049e-43
0
0
4.4016e-43
0
2.1311e-180
0
1.28485e-41
4.26656e-163
0
0
8.02295e-82
0
1.73829e-38
0
0
0
1.43327e-58
0.000492566
0
0
1.23384e-94
0.00185759
0.0164378
0
0
0
0
1.33443e-196
0
0
0
0
1.82526e-275
0
7.17062e-262
9.61053e-44
5.28905e-222
0
1.46003e-42
4.39425e-38
8.46667e-212
0
5.97366e-209
2.12128e-45
0
0
4.05619e-272
1.26717e-241
0
5.37936e-239
0
8.52229e-111
8.24546e-241
0
0
0
1.38339e-236
2.05735e-91
6.19642e-106
7.74734e-243
1.84202e-124
4.33652e-106
3.24855e-236
0
4.36536e-85
0
0
0
0
0
9.04686e-07
3.4798e-123
6.26183e-202
1.1475e-241
0
0
0
1.11233e-263
0
0
0
1.60522e-236
1.64165e-226
2.16936e-85
5.26e-133
0
0
0
0
0
0
0
0
0
0
7.48174e-05
0
0
1.98417e-215
0
0
1.89229e-05
0
3.19689e-108
1.10112e-07
7.85488e-166
1.16411e-155
1.92126e-160
0
0
1.16281e-133
0
6.02396e-157
4.67762e-89
0
0
0
0
2.92757e-149
2.04384e-61
0
7.18113e-216
0
0
0
0
0
0
4.14597e-162
8.21412e-169
0
0
3.64534e-209
0
5.50517e-213
0
0
3.49534e-149
2.12755e-100
0
5.79286e-193
0
2.54992e-253
0
0
0
0
9.93449e-193
1.3194e-200
0
0
3.14859e-239
0
0
0
0
0
0
0
9.81785e-160
0
6.1993e-111
0
0
0
0
2.75429e-119
0
0
0
2.87904e-33
6.36696e-159
0
0
5.63269e-174
0
6.18484e-64
3.10288e-105
0
0
0
4.69797e-147
1.58144e-31
0
3.15214e-128
1.46332e-28
0
0
0
5.19052e-117
3.30615e-116
4.55094e-193
0
0
1.05917e-202
5.11141e-30
5.08865e-119
0
0
8.05765e-57
0
0
6.47717e-28
2.54782e-137
1.45243e-118
7.34066e-196
1.49842e-26
3.14795e-183
8.14031e-216
0
0
0
0
0
0
2.03634e-186
9.29159e-37
0
0
5.9774e-114
4.58193e-58
0
0
1.15043e-91
2.41187e-60
0
3.74191e-171
4.46087e-150
0
2.89785e-167
0
0
3.45157e-203
3.01739e-92
9.25612e-23
2.97809e-246
0
1.38437e-320
0
1.20949e-269
1.70716e-315
0
5.69954e-83
1.94157e-239
2.3896e-239
0
0
0
0
4.94066e-324
3.09514e-250
7.61962e-91
1.15842e-242
4.90647e-121
0
1.10414e-88
3.74482e-226
0
0
1.94797e-297
0
1.35911e-311
4.85995e-318
0
1.16809e-87
0
7.80458e-75
7.57449e-69
7.84357e-79
0
1.36465e-77
1.22324e-165
0
6.45191e-263
1.12085e-271
0
0
7.13121e-302
0
5.64208e-181
0
1.11605e-212
3.05541e-170
0
1.39186e-171
0
3.83167e-245
6.50678e-268
0
0
1.64032e-209
0
0
3.40414e-266
0
0
2.30504e-211
1.27462e-152
0
2.8024e-86
0
6.50281e-202
6.22621e-223
0
0
0
5.53814e-238
0
0
0
0
0
1.86004e-216
0
0
0
0
0
5.16116e-65
3.40646e-103
0
0
0
0
6.66641e-62
0
1.38853e-99
1.13868e-249
0
5.09707e-148
0
0
0
0
4.45091e-265
0
0
0
0
3.55422e-65
1.09254e-245
0
7.97624e-237
0
0
4.01835e-26
0
1.77343e-161
1.78776e-120
0
2.99346e-291
0
0
1.46924e-219
1.47582e-220
2.13805e-168
0
0
0
0
0
0
0
0
1.11848e-244
0
0
0
7.06445e-134
0
0
0
0
0
8.64891e-257
0
1.03805e-115
2.20094e-176
0
8.41613e-171
0
3.77643e-214
2.02579e-150
1.97365e-211
2.11778e-148
0
7.50392e-162
0
7.19717e-132
0
0
5.53391e-117
0
3.30839e-205
0
5.78932e-98
0
0
0
7.1822e-90
0
0
0
0
1.75298e-63
0
2.61639e-158
0
0
2.9635e-46
0
1.64653e-52
0
0
9.98373e-290
1.16858e-186
0
1.06371e-254
0
1.66954e-29
0
0
1.07264e-19
3.82406e-92
7.02994e-18
1.1721e-104
0
0
0
0
6.63892e-267
9.33173e-22
0
0
3.60246e-109
0
3.42079e-112
0
9.96142e-26
7.98424e-161
1.14954e-16
1.13083e-22
0
0
0
1.69749e-157
3.42932e-64
2.64607e-32
9.4453e-108
0
5.85499e-155
1.87901e-175
7.93628e-163
6.31778e-276
0
2.34197e-298
4.89494e-167
0
0
6.91385e-159
0
1.79093e-267
4.27466e-33
0
4.55513e-84
4.84811e-35
2.03624e-26
1.15164e-79
0
1.31777e-183
5.37806e-27
5.38642e-218
0
1.19262e-229
5.58205e-163
1.89895e-29
2.65268e-279
0
0
4.52276e-234
0
8.51951e-315
7.91842e-30
0
8.83273e-184
1.61989e-249
4.07995e-121
6.63353e-197
1.12965e-159
3.96008e-202
3.31064e-94
0
1.13692e-223
0
0
0
4.6405e-210
5.78724e-173
0
2.88118e-211
4.18486e-285
0
0
0
0
9.55546e-311
3.1666e-194
1.09339e-252
0
0
4.64407e-249
2.24132e-252
0
1.01429e-254
0
0
1.86897e-71
0
1.77485e-173
7.40587e-229
0
2.44827e-83
1.62277e-171
7.05946e-238
9.62719e-203
1.29765e-229
2.71503e-234
3.38196e-139
0
0
0
2.83873e-218
6.66949e-198
0
0
2.25137e-235
0
0
0
0
0
0
0
8.86876e-222
2.44362e-200
0
1.63581e-199
0
2.52907e-236
2.2716e-169
0
1.26617e-177
0
0
0
4.02596e-233
9.51169e-126
0
0
0
7.41305e-225
5.24602e-152
0
0
0
0
1.47419e-254
5.90768e-102
5.4296e-237
1.48951e-107
9.03569e-38
1.22992e-84
1.40743e-256
0
0
0
3.0816e-78
0
2.92461e-254
1.75234e-251
0
3.9277e-24
0
1.40605e-230
0
0
0
0
0
0
0
0
3.32591e-59
0
0
1.01469e-26
0
0
0
3.58808e-231
0
0
0
1.00164e-32
0
1.99513e-96
2.84866e-100
0
2.0841e-198
0
1.20264e-22
8.16498e-273
0
2.69648e-234
0
5.56666e-19
1.35131e-268
0
8.26865e-18
3.04258e-35
1.86652e-237
0
0
0
0
1.31232e-316
4.81241e-30
1.08875e-250
0
1.42985e-42
0
1.23886e-24
1.06472e-07
0
4.71524e-139
3.33826e-265
7.01378e-55
0
5.82965e-40
0
8.73163e-39
2.06434e-107
2.07642e-246
4.58915e-154
0
5.63185e-320
2.12448e-322
4.94066e-324
6.17799e-200
0
0
0
5.6139e-17
2.52202e-96
0
1.88181e-34
1.46805e-36
5.11196e-90
1.11141e-313
0
5.28813e-197
0
0
0
0
5.08858e-46
0
8.89532e-13
0
0
0
4.33186e-46
7.62213e-193
0
6.23394e-105
2.04992e-25
0
2.93934e-53
9.20147e-75
7.19769e-247
5.17094e-98
5.48854e-153
0
2.84355e-105
6.51642e-206
0
2.2535e-193
0
2.1295e-140
0
0
1.30757e-41
4.34431e-77
4.61457e-321
8.00015e-277
0
0
1.85531e-274
1.16605e-81
2.99209e-28
0
0
0
2.31606e-296
0
0
7.00926e-28
3.77819e-48
5.73283e-272
8.18214e-279
5.86218e-276
9.4851e-213
1.36148e-224
0
5.96288e-222
0
8.96356e-270
1.07145e-272
1.26194e-57
0
0
8.00968e-255
0
0
1.97108e-52
0
5.70521e-214
2.49082e-213
0
0
0
0
0
0
0
0
4.2392e-53
0
0
0
0
0
3.16641e-155
0
1.13848e-169
2.26637e-140
0
0
0
0
0
1.48876e-297
0
0
0
0
0
9.64873e-202
4.16072e-176
0
8.03204e-314
0
4.99325e-279
7.48685e-253
2.32129e-223
0
1.34949e-258
0
0
0
0
0
2.37914e-220
8.49668e-130
0
4.59227e-20
0
0
3.169e-98
4.80657e-81
0
0
2.60182e-17
3.36627e-18
1.87332e-120
0
1.21188e-14
0
0
1.31786e-16
0
3.40436e-28
0
0
0
0
1.68676e-121
0
1.96213e-26
5.43359e-218
0
0
0
7.73583e-134
0
3.6559e-283
9.41852e-292
7.16016e-31
0
0
0
0
5.86948e-231
0
9.82047e-260
0
0
0
0
0
0
5.52483e-259
3.95977e-27
0
0
2.73611e-220
0
1.46445e-55
1.07055e-309
0
6.80307e-125
0
0
0
0
0
1.04102e-275
0
0
0
1.1497e-179
0
0
8.73384e-268
2.06484e-318
0
2.56943e-215
0
0
1.35534e-304
5.23555e-267
0
0
1.02521e-17
4.5854e-06
7.10821e-294
0
4.9596e-229
0
0
6.24131e-153
0
0
0
1.3823e-07
8.7184e-183
0
2.39483e-309
8.55237e-07
0
0
0
0
3.07513e-250
1.07649e-263
0
0
2.92262e-220
0
6.15544e-190
0
1.29414e-241
0
4.21665e-257
7.22988e-228
7.93064e-233
0
0
0
4.73492e-62
0
0
3.62498e-96
6.61644e-256
4.19761e-249
0
9.43209e-257
9.38151e-26
1.15735e-157
0
0
4.63364e-265
2.25289e-211
2.38672e-215
2.91679e-199
0
0
6.86003e-217
1.8069e-17
0
0
3.02075e-16
3.71815e-14
9.82457e-80
0
1.32748e-257
0
0
1.55077e-236
6.8149e-238
1.81794e-211
0
1.86883e-291
0
3.69305e-244
0
0
0
0
2.22281e-93
0
2.8464e-192
1.06686e-257
0
0
5.96994e-80
0
8.60071e-174
2.8502e-269
0
2.12536e-63
1.7627e-90
7.82418e-61
2.30494e-216
8.32706e-05
4.47488e-185
0
4.8326e-44
0
1.72089e-72
5.99374e-70
6.41958e-282
0
3.4716e-214
5.21367e-86
0
0
0
0
0
0
3.15027e-288
1.48005e-264
0
0
5.68499e-201
4.95177e-93
0
0
0
3.92961e-104
1.94446e-102
9.1729e-315
1.50386e-81
1.13974e-269
7.60894e-137
2.89871e-271
2.8356e-281
0
0
3.83817e-134
7.21851e-32
0
4.19867e-318
2.66143e-105
3.56328e-136
1.6285e-237
0
9.7084e-134
3.67747e-183
7.43401e-201
0
2.71407e-212
0
7.41848e-220
9.85883e-141
1.58092e-184
0
3.77473e-133
4.08082e-101
1.24729e-107
7.72662e-19
0
7.86368e-164
8.74646e-284
7.35636e-267
1.41772e-20
0
3.2463e-267
0
0
0
8.05902e-136
1.23327e-139
1.18537e-195
1.33051e-143
5.05318e-138
4.13201e-38
0
0
0
0
0
0
1.29225e-20
5.79189e-285
0
0
0
2.21736e-175
3.06481e-182
0
0
2.28584e-286
8.90316e-21
3.66415e-19
0
2.58704e-84
0
4.99881e-86
4.96419e-169
0
0
2.2782e-130
0
0
0
1.0355e-227
1.04287e-130
0
0
0
4.3155e-152
1.70732e-165
0
4.39069e-306
0
5.05692e-163
0
2.36966e-144
0
2.06632e-133
4.8651e-137
0
3.1251e-253
0
0
1.10501e-317
8.25233e-133
1.68399e-176
2.5794e-190
0
1.1683e-132
0
5.83912e-176
9.61535e-81
0
0
0
0
0
0
0
3.18466e-152
0
1.69226e-81
4.89711e-171
4.16163e-135
6.33062e-84
0
0
8.41298e-222
0
0
4.40756e-148
7.45717e-80
0
0
0
3.12144e-82
0
4.18708e-244
3.60775e-244
2.49726e-231
0
0
0
0
0
1.2199e-309
0
0
0
1.17866e-295
0
4.63597e-311
0
0
1.0002e-91
3.87872e-301
2.38324e-82
2.64982e-292
0
2.88094e-126
0
0
9.47374e-179
4.02246e-314
4.94066e-324
0
0
0
0
4.36731e-263
0
0
0
0
9.83368e-151
1.51798e-289
0
0
0
8.73518e-285
0
6.22077e-240
0
0
2.21877e-196
3.16334e-255
1.41707e-186
0
1.0964e-299
0
0
0
0
0
1.6793e-153
5.10198e-213
7.24411e-306
0
2.60611e-252
5.29029e-270
0
0
0
2.16158e-279
0
1.96307e-301
0
0
5.3514e-141
4.51042e-198
1.21053e-247
0
7.16316e-181
0
7.86099e-310
6.41735e-178
0
0
1.06598e-206
2.40763e-255
0
0
3.16023e-274
9.76732e-11
0
0
1.94078e-159
0
0
0
0
1.00784e-258
0
0
0
0
0
1.18812e-131
7.18487e-162
0
1.12917e-303
0
1.31782e-161
5.25452e-164
0
0
0
7.7933e-309
3.83489e-287
0
6.83717e-255
0
0
5.19107e-166
0
0
7.34538e-164
6.70231e-134
0
0
3.94778e-146
0
0
0
5.95143e-145
1.23947e-187
0
0
1.62378e-261
0
1.15496e-296
0
0
0
0
0
0
0
1.2353e-290
0
5.5698e-247
0
0
0
4.22938e-263
0
7.41277e-303
0
0
0
1.50934e-184
0
0
0
0
0
0
1.20117e-241
0
0
0
4.46308e-219
0
0
0
8.64283e-297
6.93247e-137
0
0
1.30396e-132
0
1.92387e-81
0
0
0
0
0
0
0
0
0
0
0
0
0
1.65995e-50
0
9.75825e-239
5.85341e-318
0
6.43783e-56
2.08439e-75
8.45914e-302
0
0
0
1.03688e-54
7.87472e-15
0
0
1.84155e-271
5.38398e-285
0
0
0
0
0
0
0
4.78801e-68
0
0
0
3.43266e-131
0
5.80143e-128
1.88501e-128
1.0157e-281
2.31543e-35
0
0
0
0.00198819
0
0
0
0
1.12335e-80
0
3.09007e-297
0
0
4.20409e-248
0
0
0
1.48297e-80
0
0
0
2.55382e-65
0
1.81536e-136
0
8.30779e-139
0
1.70453e-321
4.55144e-143
0
1.02071e-250
1.09509e-256
0
2.50653e-247
0
6.11525e-48
5.93094e-249
0
7.56401e-141
0
0
0
4.05869e-65
0
0
5.02687e-161
0
0
0
1.75727e-19
0
0
0
0
0
3.60431e-314
0.00457417
4.07492e-165
0
7.15356e-257
0
0
0
0
0
0
2.47349e-123
7.96443e-244
3.88655e-251
0
0
0
0
1.56506e-248
0
7.31476e-245
7.03287e-126
1.16421e-310
0
1.74539e-258
1.738e-198
0
1.9815e-265
0
0
7.42586e-106
8.78292e-292
2.65062e-110
0
1.29333e-157
0
0
8.9876e-108
1.01357e-160
4.13775e-291
0
0
1.26797e-319
1.02663e-105
0
0
5.77479e-157
0
0
0
4.32501e-17
0
0
0
2.29029e-271
4.53621e-285
3.66705e-257
0
0
0
0
1.1257e-137
3.88456e-172
0
0
3.42009e-271
4.84973e-258
0
1.93131e-185
0
0
1.0722e-58
7.21782e-119
0
3.95472e-256
0
0
0
0
0
0
1.47195e-258
1.47248e-265
0
5.01578e-121
5.89056e-122
0
0
0
5.11666e-57
3.41775e-256
0
0
2.74308e-301
0
6.16711e-288
0
0
0
8.27364e-221
0
0
6.75051e-279
0
1.01286e-288
0
0
1.57813e-293
1.75993e-210
3.84919e-269
2.10714e-135
0
3.42296e-132
0
0
1.65406e-292
3.7806e-271
0
0
0
0
0
8.66222e-148
2.63947e-53
0
2.97621e-53
0
0
0
2.76597e-231
0
2.49815e-55
2.9141e-51
5.98299e-302
6.18285e-236
2.22435e-233
0
9.41835e-237
0
0
6.89729e-255
6.76472e-290
0
0
9.29845e-272
1.00545e-233
0
0
2.80308e-308
4.59242e-222
0
0
0
0
0
0
0
0
0
0
0
0
0
0
0
0
2.77478e-288
3.87452e-267
0
4.79348e-302
0
3.50046e-320
2.73309e-157
5.53712e-174
8.06278e-163
2.1061e-141
5.25858e-139
4.78319e-129
4.74076e-151
0
0
0
0
0
0
1.31249e-278
5.64397e-164
0
0
0
3.43567e-139
2.26427e-143
0
0
0
0
0
4.3007e-283
0
0
0
0
0
0
0
0
0
3.49289e-295
0
6.6562e-293
2.05485e-303
0
0
0
2.61649e-217
4.11214e-88
0
1.3819e-133
0
0
1.53982e-263
0
3.51125e-131
0
2.49582e-254
2.94413e-148
0
0
4.27819e-152
0
0
0
0
0
2.67214e-156
0
6.54244e-279
0
4.65629e-292
0
1.14633e-84
6.91027e-169
0
0
0
1.06809e-171
0
5.849e-127
1.06641e-87
0
2.21844e-314
0
2.45501e-295
0
0
0
1.01795e-242
0
0
0
5.23494e-125
4.79006e-276
0
3.83055e-287
6.30038e-238
3.29933e-311
0
1.32362e-272
1.96222e-243
0
0
2.43599e-228
0
2.9707e-90
3.53556e-166
0
0
1.62383e-205
1.14793e-127
1.14414e-279
1.38713e-134
0
0
0
4.46905e-131
1.35181e-278
0
0
6.83803e-246
6.23548e-134
2.12009e-302
0
2.75575e-47
1.91853e-70
7.06922e-269
5.61258e-31
1.92967e-24
0
9.3392e-229
1.49317e-70
6.28284e-67
1.38579e-132
1.42802e-131
1.03562e-121
0
8.63005e-214
0
2.59549e-131
2.07593e-36
2.66359e-99
0
2.1785e-06
0
9.44657e-77
7.43403e-78
0
0
0
8.17345e-165
1.65831e-307
1.96702e-85
8.85177e-68
0
0
0
1.36073e-98
7.22071e-304
0
0
4.75831e-280
1.37911e-67
5.50362e-117
3.95339e-315
0
0
4.2005e-149
0
0
0
2.30495e-311
2.95118e-131
0
0
0
2.20289e-94
0
0
6.49468e-117
0
6.13675e-308
0
0
1.65001e-155
0
3.16631e-88
0
1.34574e-215
0
0
0
0
3.81497e-22
0
0
1.02212e-29
9.35798e-69
0
5.7278e-80
3.81101e-105
1.65507e-18
3.0377e-82
0
0
0
6.15254e-35
3.19849e-38
2.59005e-124
0
1.75881e-59
0
0.0148622
7.1651e-22
0
0
0
0
3.0258e-11
7.72301e-24
0
0
1.30554e-174
3.37829e-129
5.26509e-139
4.52331e-116