/*--------------------------------*- C++ -*----------------------------------*\
| =========                 |                                                 |
| \\      /  F ield         | OpenFOAM: The Open Source CFD Toolbox           |
|  \\    /   O peration     | Version:  v2012                                 |
|   \\  /    A nd           | Website:  www.openfoam.com                      |
|    \\/     M anipulation  |                                                 |
\*---------------------------------------------------------------------------*/
FoamFile
{
    version     2.0;
    format      ascii;
    class       volScalarField;
    location    "1.5";
    object      ILambda_1_0;
}
// * * * * * * * * * * * * * * * * * * * * * * * * * * * * * * * * * * * * * //

dimensions      [1 0 -3 0 0 0 0];


internalField   nonuniform List<scalar> 
108993
(
146.22
146.201
181.673
146.206
146.204
146.201
146.201
146.203
146.233
146.211
146.204
146.203
146.205
146.202
146.209
146.214
146.224
146.204
146.206
146.201
146.203
146.216
146.201
146.207
146.205
146.201
146.263
146.201
146.201
146.281
151.523
146.202
146.262
146.357
146.208
146.202
146.27
146.205
146.201
146.201
146.201
146.217
146.202
146.206
146.573
146.201
146.261
146.21
146.201
146.201
146.239
146.52
146.201
146.251
146.205
146.21
146.257
146.207
146.203
146.208
146.218
146.213
146.204
146.201
146.209
146.201
146.208
146.204
146.203
148.502
146.208
146.204
146.203
146.204
146.201
6112.9
146.201
146.258
146.245
146.207
147.051
146.204
146.206
146.205
146.205
146.202
146.209
146.203
146.205
146.207
146.208
319.939
146.206
146.203
146.206
146.202
154.721
146.209
173.781
146.242
146.207
146.209
146.21
146.204
146.205
146.206
146.206
146.214
146.211
146.201
146.321
146.207
147.233
146.23
146.225
146.201
146.203
146.221
151.589
187.314
146.203
146.223
146.201
146.282
146.204
146.348
146.202
146.352
146.223
146.218
146.203
146.22
146.206
146.202
146.217
146.661
146.226
146.207
146.289
146.202
146.229
146.289
149.155
146.218
146.218
146.203
146.206
146.201
146.26
146.201
146.201
146.201
146.201
146.201
146.205
146.205
146.211
146.231
146.254
148.55
146.201
146.25
1510.13
146.206
146.202
146.31
146.204
146.201
146.201
146.227
146.204
146.21
147.361
146.208
146.201
146.201
146.201
146.201
146.219
146.208
146.22
146.206
146.226
146.245
146.203
146.208
146.217
146.204
146.205
146.285
146.216
146.23
146.212
146.201
146.215
152.116
146.201
146.21
146.205
146.251
146.204
146.202
146.204
146.229
146.319
146.201
1121.67
146.201
146.234
146.201
147.385
146.208
146.201
146.201
146.201
146.205
146.208
1169.45
146.231
153.82
146.201
146.201
149.467
146.201
146.201
146.201
146.231
179.823
146.233
146.201
146.201
146.208
146.201
146.202
146.208
151.265
146.23
146.238
147.253
146.238
177.608
147.07
146.203
146.236
146.226
146.268
146.201
146.201
146.243
146.211
5035.33
146.209
146.233
146.223
146.225
146.243
146.226
146.205
187.805
146.201
603.023
146.201
147.048
146.347
146.233
146.201
276.247
146.201
146.201
146.353
146.204
163.34
146.201
146.201
146.201
146.217
146.367
146.201
146.212
146.201
146.201
146.201
146.201
146.201
151.071
146.207
146.205
146.201
146.219
146.201
146.203
2328.05
146.201
944.297
146.201
993.685
427.187
502.146
146.702
146.203
146.201
146.201
146.204
146.203
146.212
146.235
146.201
146.201
146.234
146.201
146.204
146.231
146.354
146.202
146.228
146.201
146.201
146.275
146.201
146.215
146.201
146.201
146.201
146.201
146.209
146.201
146.201
146.201
146.228
154.415
146.201
146.201
146.201
750.881
146.201
146.203
146.211
146.21
146.213
151.589
146.208
146.201
146.201
146.211
146.206
146.207
256.674
146.209
146.225
277.168
146.237
146.201
146.201
146.201
146.201
146.21
146.264
146.201
146.203
146.201
146.274
146.201
272.627
157.412
146.201
146.201
193.734
146.256
146.204
146.201
146.201
146.208
211.11
146.201
146.201
146.201
146.214
146.216
146.201
146.214
146.201
146.201
146.201
146.245
146.208
146.244
146.224
146.201
146.201
146.201
146.201
146.254
146.201
146.203
146.201
146.201
146.201
146.212
146.468
146.223
146.201
146.201
146.201
146.209
146.201
146.255
146.237
146.206
164.693
146.201
146.202
146.201
146.201
146.204
146.203
146.221
146.201
148.799
146.201
146.204
146.201
146.201
146.201
146.201
146.204
146.201
146.204
146.201
146.201
146.204
146.201
146.201
146.201
146.354
146.22
146.209
146.201
146.201
146.201
146.75
146.205
205.526
163.635
146.201
148.459
146.201
146.201
147.331
211.337
146.201
146.202
146.206
194.977
146.308
146.201
146.21
146.204
146.201
146.217
146.205
146.201
149.448
146.201
146.201
148.867
154.655
146.201
146.201
153.804
147.236
147.125
146.203
526.752
146.201
146.201
146.223
143.538
147.491
146.201
149.146
146.204
703.728
175.065
256.968
146.372
146.408
164.267
147.036
147.724
146.526
146.204
146.46
146.265
146.573
147.171
146.277
146.631
146.23
349.719
146.201
146.284
4425.58
219.608
172.977
146.253
146.201
167.642
260.813
146.201
249.803
149.704
146.201
7733.54
146.205
348.42
146.229
146.201
256.2
146.201
146.203
146.201
146.201
146.201
146.216
146.201
148.591
146.306
147.051
148.728
146.22
146.201
146.202
149.514
146.202
146.207
146.222
146.317
146.203
146.395
146.201
146.207
146.201
146.204
146.209
146.208
146.683
146.207
149.388
146.221
146.212
146.201
146.201
146.201
146.203
146.204
146.207
148.195
146.201
146.201
146.201
146.319
6305.59
146.413
146.202
148.705
146.201
146.208
742.553
146.201
146.201
146.226
146.201
146.201
148.653
146.201
146.201
146.206
148.781
146.201
146.201
146.301
146.221
226.78
146.208
146.207
146.285
146.201
148.712
146.202
146.201
146.201
146.206
146.201
271.209
146.201
146.971
146.226
146.206
146.201
148.129
183.319
146.206
146.201
146.238
146.202
146.207
146.201
146.206
146.546
146.204
146.201
146.204
150.401
146.205
146.201
146.522
149.667
146.206
146.201
146.216
146.249
146.218
146.339
146.201
146.201
146.211
1110.04
146.201
146.201
146.83
146.201
146.201
146.201
146.201
147.116
146.201
146.206
146.201
147.87
146.591
146.203
146.567
146.255
146.201
146.25
147.338
146.207
147.637
147.538
147.139
146.817
146.762
146.201
146.201
148.244
146.201
146.255
146.201
146.49
146.201
146.201
146.201
146.708
4035.42
146.201
146.201
146.511
146.238
146.201
146.201
146.361
146.223
146.316
146.201
146.201
146.21
146.201
146.924
146.201
146.201
146.201
147.264
149.13
146.448
146.201
146.499
146.295
147.012
146.927
146.201
146.27
152.501
146.832
146.205
146.201
146.201
146.406
146.201
146.451
146.201
146.202
528.129
146.201
146.201
148.082
146.207
146.531
146.204
146.215
146.201
146.201
146.201
146.201
146.378
146.201
152.482
146.876
151.601
146.203
146.511
146.201
146.878
146.247
146.386
146.206
147.31
146.206
146.259
146.201
146.202
146.898
146.795
146.231
146.916
146.203
146.203
146.668
146.201
182.605
146.201
146.203
147.123
146.201
146.201
147.595
146.205
149.924
148.344
147.718
149.764
146.208
146.201
146.201
147.998
146.201
146.202
146.201
146.208
149.5
146.201
150.411
146.201
148.757
146.324
146.212
146.201
146.201
146.201
146.204
264.59
146.507
146.236
146.211
146.201
146.201
146.206
146.6
146.201
146.201
146.242
153.561
146.203
146.373
146.393
146.203
146.201
146.202
146.203
146.21
146.205
146.215
146.201
146.237
146.218
146.201
146.506
146.201
146.237
146.201
146.233
146.201
146.296
146.207
146.205
146.275
11499.7
146.211
146.202
148.403
153.882
146.232
146.201
146.208
146.231
146.224
146.206
146.218
146.204
146.201
146.217
146.201
146.21
146.202
146.237
146.201
146.201
146.229
146.239
146.81
146.201
146.473
146.201
146.365
148.695
147.43
146.226
153.693
146.204
146.201
156.183
146.218
146.631
146.203
148.568
146.234
146.236
146.223
146.202
146.201
147.405
146.201
147.222
146.201
147.771
146.201
146.211
147.036
146.682
146.203
146.213
146.211
146.744
146.202
146.201
146.201
146.201
146.203
147.736
146.229
146.733
146.204
170.972
146.281
146.201
146.217
146.856
146.422
146.202
146.201
147.266
146.201
146.201
146.201
146.21
146.201
146.201
146.206
146.201
146.201
146.201
146.264
156.608
146.229
147.683
146.202
146.201
146.202
146.463
146.201
146.207
146.296
146.201
146.201
146.201
146.201
146.209
146.201
146.201
146.201
146.201
146.203
146.202
148.12
146.246
146.201
146.225
146.201
146.451
148.101
146.201
146.202
148.321
146.208
146.201
146.217
147.779
146.201
146.258
146.201
146.201
146.201
146.201
146.924
146.266
147.212
147.005
163.486
146.201
146.209
146.201
146.208
146.201
146.235
146.201
146.361
146.201
146.223
146.201
146.757
146.201
146.201
146.405
146.201
146.201
146.203
146.24
146.201
146.675
146.227
146.659
146.201
146.228
146.201
146.477
146.245
146.689
146.338
149.614
146.201
146.201
146.603
146.201
146.223
150.24
146.201
146.599
202.446
146.207
146.224
146.454
146.332
153.901
146.267
146.201
146.259
146.262
146.201
146.203
146.224
146.202
146.205
146.205
146.201
146.209
146.201
146.201
146.201
146.201
146.201
150.424
146.201
146.333
146.204
146.206
150.165
146.342
146.201
146.399
146.201
146.202
146.201
146.956
146.291
146.201
146.43
146.504
146.209
146.204
146.201
146.202
146.201
151.197
5411.95
146.201
148.112
146.201
146.221
148.713
146.202
146.857
146.302
146.215
148.729
146.226
146.201
146.237
146.215
146.247
5453.06
146.201
146.202
146.204
146.228
146.375
146.257
157.787
146.201
146.211
147.975
146.213
146.201
146.368
148.146
146.202
146.201
146.201
146.21
146.209
147.239
147.842
146.201
150.691
146.203
147.729
146.202
146.752
146.37
146.299
146.527
146.253
146.768
146.203
146.621
147.855
189.449
146.201
146.201
675.818
146.201
146.204
146.911
146.205
146.201
146.201
148.023
146.222
147.775
147.908
146.201
146.201
148.233
148.551
146.218
146.201
146.665
146.201
146.23
146.206
146.201
146.201
149.471
150.54
146.247
146.215
146.203
146.201
146.269
146.205
147.756
146.201
146.203
146.202
146.201
146.621
149.512
147.183
146.213
146.254
146.259
146.209
156.623
146.201
172.805
146.209
146.939
146.832
148.866
146.208
146.234
146.201
146.642
146.202
146.371
146.231
146.204
148.086
146.201
147.939
146.215
146.327
146.202
146.203
146.201
146.201
147.919
146.203
146.201
146.201
146.21
146.21
213.58
146.208
146.201
146.229
146.201
146.331
146.201
146.201
146.467
146.201
146.511
147.98
146.201
146.201
146.201
146.201
146.201
146.201
146.203
147.659
146.201
146.201
146.201
146.203
147.793
146.237
146.246
146.245
146.201
146.204
146.304
146.387
146.206
146.229
146.403
146.237
146.598
146.201
146.465
146.201
146.611
146.203
146.201
146.201
146.401
147.857
146.241
146.38
146.201
1761.05
146.201
146.208
146.201
146.201
146.56
146.201
146.206
147.022
146.206
149.156
146.201
146.202
146.201
146.277
149.944
146.338
146.226
146.65
146.205
184.128
146.259
146.398
146.211
146.567
146.201
146.216
146.57
146.207
146.201
146.258
2011.61
146.201
146.804
146.201
146.201
273.96
146.203
146.299
146.747
146.207
146.324
146.205
146.201
150.061
146.201
147.477
146.207
146.201
146.206
146.201
146.215
146.215
146.201
146.202
148.355
146.249
146.201
147.568
146.201
146.204
146.278
146.796
146.201
146.201
146.201
146.201
146.201
146.23
146.201
146.201
146.265
146.279
146.201
146.288
147.073
260.394
146.231
146.272
146.721
146.201
146.201
146.599
146.211
148.963
146.201
146.918
146.201
146.201
448.637
146.211
146.202
146.201
146.241
146.201
146.201
146.21
146.201
148.691
146.203
146.201
146.48
146.201
147.872
147.097
146.201
146.904
146.201
147.102
146.421
147.487
150.374
146.215
146.942
1891.63
146.201
146.551
147.234
6098.81
146.378
147.07
146.201
146.208
146.201
146.201
146.973
146.201
146.201
146.22
146.201
147.27
146.201
146.201
146.202
146.202
146.201
146.201
146.895
148.21
146.201
146.201
146.205
146.218
146.203
147.343
147.419
146.206
146.201
146.215
146.221
146.201
147.094
146.201
146.478
146.718
146.201
146.201
146.956
1265.75
146.201
146.201
146.201
146.222
146.728
146.266
146.205
146.201
148.059
146.858
146.201
148.151
146.276
146.201
146.211
146.201
147.242
146.201
146.201
152.239
146.283
146.248
146.321
146.203
146.251
146.325
146.201
146.201
146.28
146.294
146.201
146.205
146.201
146.201
146.205
146.579
146.206
146.204
146.201
146.201
146.208
146.202
146.206
146.201
146.206
146.201
146.206
146.203
146.201
146.548
146.202
146.201
146.276
146.201
146.221
146.201
146.201
146.21
146.201
146.431
146.201
146.201
146.615
146.242
146.201
146.201
147.288
146.201
146.247
146.201
166.173
146.339
146.201
2988.59
148.856
146.254
5009.77
146.201
146.201
146.201
146.201
146.206
146.201
146.201
146.201
146.201
146.201
146.215
146.206
147.236
146.201
692.826
146.201
146.317
146.201
147.003
146.427
165.963
146.569
147.153
146.201
146.201
146.961
146.201
146.201
146.711
146.979
146.201
146.25
146.483
146.201
146.201
146.201
146.316
146.201
146.327
146.204
146.201
146.487
146.201
146.204
146.839
146.201
146.399
146.201
146.206
146.201
146.201
146.25
146.201
146.201
146.578
146.206
146.329
426.909
146.204
146.317
146.59
146.313
149.387
146.205
146.205
149.568
146.216
146.201
146.201
146.201
146.373
146.201
146.201
172.619
146.201
149.84
146.208
147.281
146.201
146.201
146.201
149.557
146.201
146.201
146.201
146.201
146.201
147.334
147.11
146.201
146.223
146.201
147.103
146.201
147.269
146.201
147.404
146.73
146.446
146.653
146.253
146.201
146.201
146.201
538.204
146.229
146.201
146.204
146.201
146.201
146.959
146.201
146.794
146.654
146.365
146.993
146.959
146.698
146.201
146.201
146.201
146.201
146.245
146.201
146.709
146.244
146.211
146.212
146.539
146.561
146.201
146.991
146.201
147.268
147.057
146.435
146.201
146.666
149.414
146.201
147.156
146.201
146.203
147.006
146.386
146.201
146.38
146.209
146.212
146.201
146.201
146.202
146.208
146.201
150.687
146.329
148.282
146.201
146.203
146.201
146.201
146.501
146.201
146.201
146.225
146.247
146.212
146.201
146.202
146.204
146.201
146.211
148.195
146.201
146.201
146.201
146.201
146.201
146.201
146.201
146.201
146.201
146.201
146.201
146.201
146.249
146.214
146.201
146.347
148.059
152.943
147.933
146.201
146.201
148.434
146.201
146.201
147.936
147.562
146.201
146.201
148.855
146.201
146.205
146.301
147.689
146.215
146.201
147.803
147.1
146.201
146.201
146.206
146.201
146.201
146.217
146.201
146.201
146.211
146.201
146.201
146.201
146.201
146.46
146.201
146.222
146.204
146.322
146.201
146.201
146.213
146.365
146.201
146.201
146.201
146.201
146.201
146.201
146.201
158.188
146.489
146.201
146.201
146.607
146.204
146.203
146.201
146.201
146.201
147.341
146.201
146.201
146.201
146.201
146.571
146.201
146.226
146.201
146.201
146.201
146.234
146.201
146.25
146.201
147.671
146.298
146.201
146.201
146.201
146.201
146.89
152.975
146.204
146.201
150.729
146.807
146.257
146.203
146.876
146.233
146.201
146.202
146.201
146.241
146.202
146.201
146.201
146.226
146.211
146.201
146.201
146.201
146.202
146.202
146.222
146.203
146.201
146.201
146.201
146.201
166.497
146.201
146.202
146.201
146.227
162.536
146.249
146.201
146.521
146.258
146.201
146.225
149.859
146.249
149.428
146.227
146.201
146.201
146.201
146.201
146.201
146.201
146.201
146.251
146.205
146.201
152.455
147.867
147.727
146.201
146.201
146.725
146.211
146.201
147.515
146.212
147.077
147.543
146.25
146.201
146.201
146.201
146.201
146.21
146.201
147.468
146.201
146.201
146.213
146.201
159.176
2637.42
146.201
146.211
146.201
146.201
146.201
146.201
146.201
146.201
146.201
146.201
146.201
146.206
149.451
146.201
146.201
146.201
146.203
146.201
146.213
146.201
146.201
146.201
146.201
146.201
146.201
146.201
146.206
146.201
146.201
146.201
146.201
146.201
146.201
146.201
146.207
146.201
146.201
146.201
147.955
146.201
146.201
149.029
146.201
146.857
146.201
146.201
146.201
147.932
146.201
147.197
518.247
942.407
146.201
146.201
146.201
146.201
146.201
1481.64
146.208
146.201
146.206
146.202
146.201
146.202
146.202
146.201
146.38
147.445
147.379
146.201
149.33
146.201
146.201
149.207
146.229
146.201
1066.99
146.201
146.201
146.201
146.201
146.204
146.201
146.203
146.261
146.201
146.201
146.201
146.201
146.201
146.201
146.201
146.359
146.204
146.201
146.201
146.201
146.201
146.202
146.203
146.201
146.227
146.201
146.204
146.201
148.025
146.207
149.539
146.316
783.755
146.21
284.782
146.201
170.751
146.204
146.201
146.201
146.201
146.201
147.484
146.204
146.204
146.201
146.201
146.229
146.413
146.201
146.201
146.201
146.214
146.201
146.219
146.596
146.201
169.738
146.201
162.249
146.201
146.201
146.201
146.201
146.201
146.201
146.201
146.201
146.201
161.836
146.201
146.49
146.21
150.99
146.201
146.201
150.363
196.812
146.234
146.201
146.201
162.531
146.233
146.492
146.201
146.201
148.585
146.205
146.201
146.201
146.201
146.201
146.201
146.201
160.249
146.201
146.201
146.201
146.201
146.201
146.201
146.201
146.202
162.404
146.201
150.213
147.121
146.201
146.201
146.259
146.201
146.202
146.201
146.201
146.206
146.201
146.202
146.201
146.201
147.799
146.201
146.201
146.201
146.201
146.201
146.201
146.202
146.201
146.201
146.201
146.202
146.201
146.201
146.205
146.201
146.201
146.221
146.201
146.202
146.201
146.201
146.201
146.201
146.201
146.329
146.202
146.201
146.201
146.201
146.201
146.201
147.337
146.201
146.201
146.201
150.974
146.201
146.203
146.201
146.201
146.201
154.505
146.205
146.201
146.201
146.202
146.352
146.215
146.201
146.201
148.986
146.656
146.366
146.201
146.201
146.212
146.201
146.201
146.201
146.201
146.265
146.235
146.201
146.206
146.207
146.29
146.201
146.201
146.201
146.201
146.257
149.709
146.201
146.247
146.202
146.977
146.201
146.538
146.201
146.201
146.407
146.204
146.201
146.201
146.201
146.233
146.202
146.236
146.205
146.201
146.201
146.201
146.201
146.204
146.202
146.201
146.725
146.204
146.201
146.201
146.637
146.204
146.201
148.935
146.405
146.246
146.201
146.201
146.201
146.201
146.201
146.204
146.201
146.202
146.433
151.076
148.605
146.201
146.201
146.268
146.602
146.203
146.201
146.226
146.201
146.203
146.235
146.872
146.201
146.277
146.738
146.201
146.207
146.201
146.201
146.252
146.201
146.371
146.201
146.836
146.201
146.201
146.201
147.919
146.205
146.201
146.201
146.512
146.201
146.274
146.245
146.289
147.642
148.135
147.999
146.208
146.203
148.54
146.979
146.201
146.234
146.201
147.702
148.784
146.205
146.201
146.201
146.208
146.206
146.201
146.21
146.201
146.202
146.21
146.201
147.626
146.201
146.904
146.201
146.201
147.021
146.201
146.203
146.323
146.208
147.084
146.935
146.49
146.201
146.928
146.201
148.292
146.201
147.075
146.451
146.354
146.246
146.64
148.205
146.299
146.202
146.878
146.201
146.36
149.621
146.471
146.59
146.201
149.775
146.298
172.732
146.55
146.943
146.842
146.441
159.154
146.202
146.57
146.237
146.203
169.309
146.392
162.796
217.324
173.693
146.203
146.203
146.579
146.201
146.203
147.091
146.201
146.201
146.216
150.142
147.795
146.201
146.201
146.225
147.522
146.287
147.75
146.255
146.223
148.896
146.224
146.472
146.422
146.218
146.6
147.585
146.221
146.701
146.261
146.487
148.164
150.076
146.201
146.222
150.508
146.201
146.201
146.424
146.352
146.227
146.209
146.202
146.207
146.301
2268.59
146.215
146.201
146.646
1865.92
3371.4
146.201
149
150.128
146.201
148.674
146.207
146.201
146.21
146.201
146.204
146.201
146.21
146.223
146.424
146.201
146.433
146.581
146.201
146.206
146.201
146.314
146.716
146.7
146.206
146.201
146.499
146.201
146.202
146.203
146.201
146.208
146.202
146.252
146.201
146.203
149.153
146.201
146.202
146.272
146.201
146.201
146.765
146.201
146.201
146.201
146.201
146.201
158.212
146.209
146.221
146.201
146.213
146.202
146.203
146.201
146.201
146.205
146.201
146.201
146.201
146.203
147.648
146.201
146.202
146.201
146.201
146.202
146.212
146.201
146.205
146.469
146.201
592.085
146.203
146.362
147.276
146.208
146.208
2876.5
1119.07
146.686
479.706
146.319
146.689
146.795
146.201
146.442
146.202
146.218
146.834
146.223
146.208
146.201
149.406
146.222
148.321
148.457
146.205
146.201
146.942
146.224
146.201
147.357
146.201
146.857
146.203
146.217
147.974
147.931
146.397
146.246
146.267
146.201
148.77
150.992
146.386
148.874
146.808
146.203
146.281
148.78
146.62
146.231
146.298
146.201
146.214
146.201
146.201
146.201
146.201
146.507
146.201
146.201
146.431
146.201
146.201
146.201
146.201
146.208
146.202
146.201
146.288
146.201
146.563
146.201
146.201
146.273
152.656
146.201
146.328
148.541
146.201
146.58
146.235
150.33
146.204
146.77
146.201
146.203
151.063
146.201
146.202
156.9
146.242
146.201
146.472
146.298
146.203
146.212
146.21
146.204
147.024
154.71
146.204
146.234
146.203
148.973
146.202
147.65
155.909
147.693
146.601
146.201
162.623
146.201
148.224
146.201
146.201
146.819
146.201
146.201
146.202
146.201
175.515
146.555
146.201
146.203
146.539
146.205
146.201
146.202
146.893
146.21
146.245
146.201
146.201
149.837
146.201
146.354
146.387
146.218
146.228
146.201
146.204
146.431
146.203
146.631
146.343
146.209
146.204
146.201
146.201
146.201
149.298
146.21
146.201
146.395
147.22
146.21
146.201
146.225
146.201
146.219
146.591
146.389
146.618
146.201
146.201
146.201
146.42
146.201
146.21
146.201
146.68
147.628
146.852
146.843
146.889
146.343
146.45
146.201
146.256
146.201
146.201
146.201
147.409
147.475
146.201
147.742
146.201
146.201
146.398
146.201
146.201
146.201
146.201
146.627
147.706
146.202
146.202
146.201
146.204
146.202
146.216
148.883
146.743
147.109
146.201
146.201
146.201
146.202
146.201
146.201
146.201
146.201
146.634
146.215
146.201
146.207
147.64
146.201
146.216
146.962
147.566
148.958
146.205
146.202
146.201
146.465
146.285
146.201
146.402
146.204
149.537
146.201
146.63
146.206
146.205
146.204
146.201
146.201
146.201
146.201
146.549
146.201
146.201
146.257
146.201
146.201
146.201
146.716
146.21
146.216
146.201
150.35
146.483
146.201
146.201
146.201
146.297
146.201
146.201
150.685
146.201
146.201
146.201
148.509
146.201
146.201
146.201
146.201
146.201
146.201
146.207
146.201
146.207
146.205
146.216
146.201
146.201
146.201
146.201
146.201
146.977
148.355
148.264
146.201
150.916
146.201
150.338
146.201
146.201
146.201
146.211
146.201
146.209
146.208
146.201
146.202
146.201
146.201
146.201
146.202
146.202
146.201
146.201
148.677
146.201
146.204
146.229
146.201
146.206
147.355
146.301
146.201
147.818
146.828
146.201
146.205
146.201
146.251
146.201
146.203
146.201
146.201
146.201
146.506
146.201
150.491
214.126
146.203
218.788
146.207
146.208
150.52
146.201
146.208
146.206
151.108
146.539
146.201
146.21
146.201
146.202
146.203
150.07
146.214
211.769
183.395
146.201
146.211
146.201
146.214
146.205
147.51
146.21
146.21
146.216
148.025
146.201
146.201
146.201
146.553
146.217
149.449
146.201
146.201
148.812
146.201
191.59
146.219
146.204
181.212
146.296
146.23
146.252
146.201
149.102
146.201
146.201
146.201
146.217
149.948
146.27
146.201
146.34
146.201
146.303
146.201
148.197
146.201
146.205
146.201
146.875
146.201
146.221
146.201
146.202
146.202
146.217
146.201
146.201
146.201
146.201
146.201
146.275
146.201
146.201
146.201
146.202
146.201
146.201
146.201
148.397
146.201
147.142
147.228
146.201
146.201
146.211
146.201
146.204
146.208
146.203
146.229
146.201
146.201
146.201
146.204
146.201
146.201
146.462
146.201
146.201
146.249
146.201
146.203
147.03
146.201
148.136
146.205
146.201
146.258
146.201
146.201
146.201
146.201
146.201
146.201
146.201
146.201
146.201
146.201
146.201
146.201
146.201
149.672
146.201
146.201
146.201
146.202
146.202
146.201
146.229
146.201
146.201
147.133
146.428
147.884
147.682
146.201
146.203
146.204
146.201
146.206
146.201
146.205
151.527
146.203
146.201
146.201
148.964
146.201
146.318
146.727
146.201
146.201
148.826
154.405
146.207
146.201
146.201
146.211
146.201
146.201
146.201
146.201
146.209
146.201
146.205
146.201
146.205
159.82
146.201
146.201
146.201
146.201
146.201
146.236
148.118
152.174
146.201
146.202
146.287
147.249
146.53
146.201
151.811
146.201
146.201
146.201
148.125
148.473
146.201
146.21
153.33
224.716
146.201
146.201
146.662
147.693
146.234
146.203
152.558
146.327
146.224
146.204
146.204
146.213
146.355
146.204
146.215
146.201
146.208
146.203
146.825
146.201
147.086
147.24
146.201
146.242
146.207
146.209
146.206
146.201
146.291
146.201
146.203
146.226
146.219
146.608
146.201
152.907
146.246
146.207
146.207
146.23
146.52
146.227
146.227
146.201
146.25
149.034
146.202
400.241
146.367
146.218
146.207
155.976
146.239
146.208
146.202
146.209
146.204
148.134
146.203
146.201
151.546
146.205
146.351
146.205
146.269
146.209
146.201
147.368
148.833
146.215
146.208
161.111
146.204
146.201
146.201
146.381
146.206
146.201
146.203
146.216
146.201
146.209
146.201
146.205
146.201
146.203
146.206
151.528
146.201
146.201
146.201
146.22
146.201
146.201
146.201
147.288
146.201
146.201
149.134
146.201
147.712
146.201
146.201
146.201
149.209
146.201
146.252
146.202
146.282
146.201
146.201
146.201
146.291
146.201
146.386
146.201
148.185
146.201
146.201
146.201
146.201
146.201
146.201
146.625
146.206
146.201
146.201
146.213
146.201
146.201
146.201
146.217
146.201
146.201
146.201
146.201
146.201
146.201
150.622
147.526
146.201
146.201
146.201
146.201
146.201
146.201
146.201
146.201
146.201
146.201
146.201
146.201
146.201
146.207
146.201
327.262
146.201
146.201
146.288
146.203
146.201
146.201
467.957
392.764
146.205
146.214
1016.31
146.201
146.201
946.259
146.201
153.186
146.201
146.201
146.201
146.201
146.207
146.201
156.612
146.205
146.201
146.201
146.201
146.224
146.201
146.214
146.201
172.419
146.201
146.201
146.201
146.227
146.201
146.201
146.201
146.201
146.201
146.201
146.201
146.201
146.201
146.201
150.058
146.201
146.201
146.201
146.211
170.797
146.201
146.205
146.208
146.602
146.201
146.201
146.201
146.201
146.201
146.221
146.201
146.201
146.983
146.201
146.21
146.201
146.201
146.268
146.201
146.201
146.229
146.201
146.201
146.201
146.201
244.637
1068.18
146.201
146.201
146.201
146.205
146.201
146.42
146.201
146.201
146.201
632.466
146.201
146.201
146.201
256.939
146.201
146.202
146.202
146.201
146.201
146.201
146.201
146.201
146.201
146.201
146.203
146.435
146.201
146.201
146.201
146.201
146.201
146.201
146.202
146.958
146.203
146.201
146.201
149.235
146.201
146.201
146.201
146.62
158.975
146.201
147.599
146.201
146.201
146.201
146.206
146.201
146.201
146.201
146.211
255.109
146.201
146.201
234.109
286.798
147.968
146.201
146.202
146.201
146.201
146.201
146.201
146.201
146.204
146.201
146.201
146.201
146.202
146.201
146.201
146.201
147.274
146.201
146.201
146.201
146.201
146.201
146.205
146.201
146.201
146.201
146.201
146.207
149.655
146.208
146.201
152.596
146.201
146.201
146.214
146.201
146.206
146.206
146.201
146.201
146.234
147.334
146.201
146.201
146.206
146.201
146.341
146.201
146.201
146.206
146.201
146.201
146.201
147.571
146.207
146.64
146.201
146.623
146.442
146.201
146.204
146.202
146.201
146.201
146.201
146.201
146.201
146.201
153.648
147.54
146.201
146.676
146.201
146.201
146.201
146.201
146.201
146.201
146.201
146.206
146.201
146.201
146.201
146.23
146.201
146.201
146.536
146.822
146.28
149.695
146.201
146.204
146.201
146.272
146.201
146.201
146.201
146.201
146.201
146.201
146.201
147.421
146.201
146.201
146.215
146.201
146.201
146.201
146.201
146.201
146.201
146.265
146.221
146.208
146.201
146.201
146.201
146.202
146.32
146.833
146.201
146.262
146.294
146.201
146.204
146.201
146.204
146.201
146.201
146.201
146.201
146.206
146.201
146.201
146.201
146.201
146.201
146.201
146.202
146.201
146.201
146.201
146.201
146.218
146.201
146.201
146.201
146.203
146.223
146.201
146.201
146.201
146.201
148.098
146.201
146.201
146.22
146.202
146.201
146.201
146.234
146.201
146.248
146.201
146.203
146.21
146.206
146.201
146.221
146.201
146.208
146.201
146.325
146.203
146.211
146.293
146.216
146.201
146.201
146.201
146.201
146.201
146.209
146.201
146.201
146.213
146.225
146.201
146.201
146.201
146.201
146.201
146.201
146.201
146.214
146.201
146.201
146.201
146.201
146.201
146.201
146.201
146.201
146.201
146.202
146.545
146.201
146.475
146.201
146.201
146.201
146.204
146.205
146.36
146.201
146.201
146.201
146.201
146.201
146.208
146.201
146.337
146.201
146.201
146.205
146.207
146.201
146.205
146.201
146.201
146.219
146.201
146.201
146.201
146.201
146.309
146.204
146.214
146.205
146.201
146.201
146.201
146.205
146.201
146.201
146.212
146.201
146.201
146.201
146.201
146.201
146.201
146.201
146.201
146.201
146.201
146.201
146.201
146.201
147.023
146.201
146.201
146.201
146.201
146.202
146.201
146.201
146.201
146.201
146.201
146.201
146.201
146.201
146.201
146.247
146.201
146.201
147.346
146.201
146.201
146.201
146.201
146.202
146.201
146.201
146.201
146.201
146.201
146.587
147.435
147.104
146.201
146.201
147.743
147.812
147.347
146.201
146.201
146.201
146.493
146.201
146.754
146.205
146.201
147.755
146.201
146.201
147.508
146.201
146.201
146.201
146.201
146.201
146.201
146.201
146.201
146.202
146.201
146.201
146.201
146.201
146.201
146.201
146.201
146.201
146.201
146.255
146.201
146.201
146.201
146.203
146.201
146.201
146.201
146.201
146.201
146.201
146.201
146.201
146.201
146.201
146.202
146.201
146.201
146.201
146.201
146.201
148.973
146.201
148.662
146.201
146.201
146.201
149.073
146.208
146.221
146.201
146.202
146.201
146.201
146.201
146.238
146.205
146.201
146.203
146.209
146.201
146.211
146.21
146.201
146.201
146.201
146.201
146.201
146.201
146.201
146.211
146.201
146.201
146.201
146.204
146.21
146.205
146.201
146.201
146.201
146.201
146.211
146.248
146.201
146.201
146.201
146.201
146.201
146.201
146.201
146.201
146.201
146.252
146.201
146.205
146.201
146.201
146.201
146.97
146.201
147.186
147.308
146.201
146.22
146.201
146.984
146.201
146.868
146.201
146.201
146.201
146.201
146.204
146.201
146.201
146.201
146.201
146.201
146.201
146.201
146.201
146.204
146.201
146.209
146.201
146.203
146.201
146.201
146.201
146.201
146.201
146.201
146.201
146.201
146.201
146.661
146.201
146.201
146.201
146.208
146.201
146.201
146.201
146.201
146.201
146.201
146.206
146.201
146.214
146.214
146.214
146.201
146.201
160.673
146.201
146.201
146.201
146.201
146.201
146.201
146.274
146.205
146.201
146.201
146.201
146.201
146.201
146.203
146.201
146.456
146.296
146.93
146.201
146.201
146.201
146.201
146.201
146.201
146.201
146.201
146.319
146.201
146.201
146.201
146.344
146.201
146.201
146.201
146.201
146.538
146.201
146.453
146.201
146.205
146.202
146.203
146.244
146.204
146.201
146.217
146.201
146.201
146.247
146.201
146.201
146.207
146.201
146.201
146.201