/*--------------------------------*- C++ -*----------------------------------*\
| =========                 |                                                 |
| \\      /  F ield         | OpenFOAM: The Open Source CFD Toolbox           |
|  \\    /   O peration     | Version:  v2012                                 |
|   \\  /    A nd           | Website:  www.openfoam.com                      |
|    \\/     M anipulation  |                                                 |
\*---------------------------------------------------------------------------*/
FoamFile
{
    version     2.0;
    format      ascii;
    class       volScalarField;
    location    "1.5";
    object      ILambda_7_0;
}
// * * * * * * * * * * * * * * * * * * * * * * * * * * * * * * * * * * * * * //

dimensions      [1 0 -3 0 0 0 0];


internalField   nonuniform List<scalar> 
108993
(
291.294
146.201
146.226
146.986
148.657
146.201
146.201
146.21
3040.37
158.645
146.294
146.219
148.03
146.436
777.712
146.202
152.716
295.176
147.747
146.201
180.513
167.109
146.201
1151.25
146.621
146.201
146.363
146.201
146.201
147.761
160.314
146.452
146.354
169.705
147.225
176.382
146.333
351.364
146.201
146.201
146.201
147.308
146.219
146.272
146.201
146.201
146.421
146.201
146.201
146.201
146.901
146.201
146.201
146.283
262.748
1197.8
146.592
146.508
301.794
147.271
146.627
148.628
181.74
146.201
146.278
146.201
146.246
168.421
150.083
146.201
1003.9
152.55
214.094
157.02
146.201
9474.16
146.201
154.778
146.509
146.337
189.816
170.124
160.878
146.237
306.547
146.204
146.239
146.207
147.469
146.349
146.223
1084.31
146.229
146.246
146.241
146.256
620.398
1766.84
433.675
146.271
146.394
186.282
995.229
149.449
1071.97
146.211
255.037
147.068
146.92
146.201
146.201
146.214
146.201
146.201
153.387
146.201
154.107
173.485
146.202
857.519
154.282
152.307
146.201
146.322
254.994
146.202
146.201
981.741
150.267
151.221
146.217
155.641
1024.19
146.201
146.677
146.207
173.826
848.928
147.542
146.783
146.267
146.464
146.201
172.007
166.217
222.178
1638.74
146.201
146.323
146.201
146.201
146.201
146.201
146.201
238.712
146.201
461.073
147.307
149.717
146.201
146.201
146.916
1370.43
660.279
146.277
146.201
146.218
146.201
146.201
159.058
155.16
1360.49
146.201
146.229
146.201
146.201
146.201
146.201
929.527
147.657
149.425
268.931
147.874
146.318
147.235
812.666
148.448
213.912
317.083
146.39
168.709
148.722
180.528
146.201
222.514
150.429
146.201
645.55
788.078
146.32
146.219
146.201
251.39
146.242
146.201
146.201
182.33
146.201
2913.03
146.201
146.201
464.489
146.201
146.201
146.201
849.247
667.391
475.76
149.591
146.362
146.201
146.201
146.575
146.201
146.201
146.201
147.154
147.518
146.201
146.201
146.201
1310.63
146.201
146.201
154.727
146.264
234.538
146.279
146.201
146.969
146.299
3882.68
146.204
147.511
158.407
146.202
146.201
146.201
146.494
173.198
1130.81
147.252
4017.72
164.526
149.055
146.652
148.18
146.209
635.494
146.201
146.648
146.201
146.202
146.202
146.343
146.201
146.244
146.201
146.201
3267.77
146.3
146.205
146.201
146.201
146.201
1179.45
206.413
146.201
147.984
146.201
146.201
146.201
146.201
146.201
148.586
146.202
149.332
146.201
148.87
146.201
150.645
146.415
146.201
149.985
146.201
146.602
2761.81
147.488
146.292
146.206
146.201
146.201
785.813
146.209
3627.61
146.201
146.201
146.201
146.201
146.201
146.321
146.452
146.265
236.82
146.201
146.201
146.201
146.25
146.201
3534.52
146.201
146.201
146.201
146.201
1671.7
146.201
146.201
146.201
608.907
150.143
146.201
146.201
146.201
201.171
146.201
471.273
146.223
148.14
1164.71
147.9
194.733
146.201
146.201
991.341
261.684
552.444
146.216
150.125
146.23
146.235
159.317
146.201
146.201
146.201
146.201
927.802
2189.33
146.201
146.203
146.201
146.203
146.201
146.216
146.208
146.201
146.201
146.255
531.619
219.072
146.201
146.201
146.202
146.207
146.201
146.201
146.201
153.019
1548.96
146.201
149.714
146.201
146.201
146.201
146.201
608.173
146.201
147.066
146.201
146.201
146.201
146.201
146.201
146.201
147.302
146.201
146.201
146.201
146.45
146.202
1817.02
146.201
146.201
146.201
147.578
146.201
146.201
146.201
1237.67
146.414
146.201
149.63
146.201
146.201
620.596
146.205
3355.94
146.201
146.202
146.201
146.363
146.201
146.201
146.201
146.201
146.236
146.201
349.9
146.201
146.201
146.25
146.201
146.201
146.201
146.473
146.433
154.402
146.201
146.201
146.201
746.817
299.419
475.327
652.619
146.201
146.201
146.201
146.201
146.201
208.152
146.201
146.202
146.254
192.184
169.577
146.201
955.802
204.936
146.201
156.176
146.21
146.201
146.239
146.201
146.201
146.209
146.209
146.201
146.201
146.209
146.203
146.23
164.449
147.284
146.201
146.201
146.202
308.091
146.201
146.201
146.201
1049.71
268.229
7386.2
146.219
146.202
146.203
146.211
146.203
146.201
178.284
209.85
263.792
146.202
146.203
146.201
147.547
146.202
150.052
146.369
146.201
146.228
476.319
175.318
146.215
146.201
146.201
146.208
521.354
146.201
146.221
146.202
146.201
8175
146.214
146.286
146.865
146.201
146.216
146.201
146.201
146.201
146.201
146.201
146.201
146.201
146.201
146.201
171.398
146.201
146.201
146.201
205.083
146.201
147.791
407.749
149.516
146.201
146.896
149.189
146.201
180.597
146.201
146.626
200.795
147.224
3580.57
179.504
146.201
427.901
146.376
146.201
146.201
146.201
490.968
270.759
177.299
144.627
146.201
146.201
146.201
170.537
4090.29
146.202
146.201
146.201
146.201
513.894
441.221
146.201
146.201
146.211
146.201
146.201
146.201
146.201
146.201
301.902
146.201
146.201
146.201
146.548
965.47
176.14
173.335
742.329
146.201
146.201
146.201
146.206
146.201
146.201
525.352
146.201
146.469
146.201
200.218
4295.96
529.334
146.201
146.206
147.495
147.091
146.201
146.202
147.254
645.19
146.201
594.386
146.226
146.202
146.201
146.202
146.201
146.202
146.201
146.203
146.202
525.326
146.201
146.247
146.201
146.327
698.206
146.201
146.201
159.991
4202.67
146.201
146.201
146.202
146.201
146.201
146.201
146.201
146.202
146.201
626.817
146.201
146.201
146.201
191.969
146.201
146.208
146.201
446.901
146.202
146.202
146.201
146.201
146.202
146.202
146.201
146.201
146.201
146.202
146.201
146.201
146.201
146.201
146.201
146.201
146.201
146.376
153.3
146.201
146.201
146.201
146.202
146.201
146.201
146.202
146.201
146.201
146.201
146.201
146.589
146.201
146.227
146.201
146.201
146.201
146.201
146.207
146.202
146.201
146.202
146.201
146.247
146.241
146.201
146.271
154.12
146.201
165.672
146.201
146.201
147
146.201
146.889
146.201
146.201
146.355
146.201
146.201
146.202
146.219
146.201
146.201
184.313
146.201
146.201
146.201
146.201
309.993
146.201
162.281
146.201
146.202
146.205
146.201
146.201
146.202
146.201
146.202
230.419
146.202
146.201
146.201
146.201
161.499
146.201
146.202
146.202
146.202
146.203
146.209
146.201
146.201
146.413
146.201
146.202
146.202
146.201
146.201
146.222
146.201
146.204
146.203
146.236
146.203
415.326
146.201
146.201
146.248
146.201
146.201
146.201
146.202
146.201
146.201
146.202
146.201
146.252
146.33
146.201
146.201
146.201
146.201
146.422
154.913
146.409
146.201
150.008
146.201
146.201
148.583
146.387
146.201
146.201
150.597
146.206
146.201
146.277
146.364
146.201
146.201
146.201
146.869
2299.79
146.201
146.614
146.201
146.295
163.267
146.201
146.202
146.201
146.201
146.201
151.551
146.201
146.202
147.262
146.202
146.202
2565.51
677.933
148.185
1650.06
1257.47
146.202
146.201
146.291
146.201
209.074
146.201
146.201
147.664
146.201
146.201
146.201
148.257
147.717
146.205
146.201
146.201
146.201
146.202
146.201
146.201
146.201
146.201
146.202
146.247
146.201
146.201
146.212
146.201
146.201
146.219
368.622
146.351
146.201
146.344
146.201
146.201
146.229
146.203
146.201
146.426
146.201
147.586
146.201
146.439
146.201
146.201
146.201
146.201
146.518
146.201
146.201
146.201
146.201
146.201
146.201
146.201
146.202
146.201
146.202
146.201
153.616
284.419
146.201
146.201
146.238
146.201
146.201
146.201
146.201
146.201
146.201
146.201
146.201
146.201
146.201
146.201
146.333
146.201
146.201
146.201
146.268
146.715
146.202
146.203
146.201
146.201
160.459
146.202
146.201
146.241
146.201
146.201
146.201
146.201
146.201
1360.31
146.201
146.201
146.201
146.201
146.46
151.509
146.202
146.201
146.201
347.064
146.201
146.202
146.202
146.201
146.202
146.202
146.201
146.201
146.773
146.206
146.201
146.201
146.201
146.201
146.201
146.201
146.201
146.201
146.203
146.203
166.09
146.201
1274.9
146.201
146.201
146.201
146.323
146.201
146.201
146.201
153.15
146.201
146.201
146.201
146.201
146.204
146.201
146.201
151.145
146.201
146.201
146.204
153.953
146.203
146.201
146.201
146.201
146.201
146.201
146.201
148.337
146.201
146.201
146.201
146.201
146.201
153.667
624.434
146.201
146.201
197.294
1131.62
149.77
146.201
152.97
146.212
159.073
146.201
147.407
161.05
146.201
146.201
175.042
146.202
152.543
187.873
146.201
146.217
146.201
146.201
146.201
146.201
146.201
146.201
146.201
153.456
157.224
146.201
146.201
146.201
146.201
153.775
146.201
146.202
146.201
146.201
146.201
146.201
152.065
152.635
1300.29
146.202
146.201
146.202
146.201
153.386
917.39
146.201
165.011
146.201
146.396
166.068
146.201
146.201
146.201
146.201
173.571
152.267
146.201
146.201
373.049
146.251
779.444
146.201
146.202
146.201
147.176
146.202
146.202
146.618
146.201
146.201
146.201
146.201
146.201
146.202
146.201
146.201
146.201
146.201
953.631
1597.21
146.201
146.202
146.201
146.201
146.201
146.259
146.201
146.201
146.205
146.201
146.201
146.202
146.493
146.201
146.201
146.201
2575.5
146.201
146.201
146.324
146.201
152.595
152.82
146.201
146.201
146.201
146.28
148.935
146.204
146.201
146.201
146.201
146.241
225.015
146.223
146.201
146.205
146.201
146.201
146.213
146.201
146.201
303.725
290.624
146.269
146.224
146.201
146.201
146.201
150.312
336.016
146.201
146.216
146.206
146.201
147.896
200.515
317.783
147.132
202.221
202.563
1286.71
156.235
146.201
146.216
1613.46
148.49
152.887
146.201
146.201
146.201
146.201
151.14
156.381
146.202
239.408
201.005
153.423
146.201
146.205
148.458
146.201
146.203
146.201
146.201
146.201
165.94
147.701
146.201
146.201
872.634
806.453
818.527
146.201
146.201
148.763
146.201
224.761
146.201
146.201
487.058
146.201
146.201
146.203
146.201
146.201
146.201
146.201
146.201
146.201
146.201
146.204
146.201
146.201
146.201
147.626
146.201
146.201
146.201
146.201
146.201
146.201
146.07
146.201
399.391
146.201
146.201
146.201
157.455
146.201
146.207
146.201
147.403
164.061
146.201
146.201
146.201
146.294
146.248
146.201
146.201
4314.95
146.201
147.32
146.201
146.201
146.201
146.201
146.323
146.201
872.668
146.202
146.201
146.201
146.201
146.201
146.202
146.201
146.201
146.201
146.201
188.005
324.692
147.478
162.614
148.825
146.201
146.307
149.456
1591.77
146.201
650.769
146.283
146.201
146.202
146.201
146.201
3942.4
146.201
177.985
146.201
1141.93
172.057
164.494
146.201
145.544
146.201
146.275
1064.53
146.201
1257.02
146.201
2241.93
146.201
146.201
146.202
146.201
146.201
146.201
146.201
146.201
1084.12
146.202
270.763
146.201
146.201
146.201
146.201
146.201
161.383
146.201
146.201
146.201
146.201
146.201
146.201
245.336
767.895
146.224
146.201
146.295
146.201
146.201
146.201
160.556
253.446
146.201
158.956
146.201
146.201
146.331
146.201
146.201
146.201
146.201
146.201
146.201
146.201
146.201
146.201
146.205
146.201
146.201
146.201
153.034
153.452
146.201
163.873
146.201
154.989
146.201
148.559
146.201
146.201
148.643
169.066
146.201
146.307
147.558
146.639
146.333
146.204
146.201
146.202
146.201
146.201
152.66
146.201
146.201
150.556
146.201
146.318
146.201
146.201
146.202
146.207
146.201
146.201
146.201
146.203
146.201
146.201
859.525
316.254
147.058
148.377
146.709
146.201
146.201
195.836
168.671
146.201
146.331
146.201
146.202
146.202
146.201
146.201
146.377
146.345
146.201
146.201
146.201
146.202
146.202
146.201
146.204
146.201
146.799
146.56
146.201
146.201
151.718
146.201
146.201
146.201
146.201
146.201
146.201
146.232
149.22
146.201
146.202
226.572
155.975
146.201
146.201
146.201
153.069
152.938
146.201
181.358
146.201
146.201
183.678
152.264
175.915
146.202
146.201
146.201
1505.34
146.201
173.295
146.201
178.269
146.201
178.755
146.202
146.201
146.202
146.202
146.201
149.456
146.201
146.201
146.201
146.201
1222.79
146.201
146.201
146.201
146.201
152.643
146.201
146.201
146.201
146.202
146.201
208.658
146.201
382.883
177.647
146.201
1395.49
146.426
149.126
2110.28
146.201
146.201
146.201
146.201
146.201
146.201
146.201
146.201
146.201
146.201
146.279
146.201
146.201
146.201
164.683
146.201
146.201
146.201
178.924
146.201
148.472
156.305
156.581
146.201
146.201
146.201
146.201
146.201
158.837
146.207
146.201
221.426
166.195
146.201
146.201
146.201
146.201
146.201
149.508
146.24
146.201
153.177
146.201
146.202
158.888
146.201
149.824
146.201
1030.69
146.201
146.201
146.201
146.201
146.201
146.201
146.212
146.201
161.062
630.451
158.784
146.206
146.973
3383.62
146.201
164.647
146.205
146.201
146.201
146.201
146.201
229.986
146.201
146.201
236.485
146.201
197.887
396.445
146.201
146.201
146.201
146.201
199.124
146.201
146.201
146.201
146.201
146.201
146.201
146.201
146.201
146.201
146.201
146.201
146.201
146.201
146.201
146.201
146.201
146.201
146.201
146.201
146.201
146.201
146.201
579.202
208.055
146.201
146.204
146.201
146.201
146.79
146.201
146.201
169.527
213.547
152.512
152.7
146.201
146.201
146.201
146.201
146.201
623.819
146.201
146.201
146.201
155.408
146.201
159.13
169.874
146.201
152.733
146.201
151.188
152.625
146.202
146.201
146.201
146.201
146.201
146.201
146.201
146.201
154.347
232.42
146.201
167.565
1239.88
313.274
146.201
146.201
146.201
146.201
146.201
146.201
235.823
146.201
146.201
146.201
146.201
146.201
146.202
146.201
146.201
146.201
146.201
155.46
146.201
173.52
160.499
146.201
148.795
146.201
146.201
146.201
146.201
146.201
146.201
146.201
146.201
146.201
146.201
146.201
146.201
146.201
176.348
146.201
146.201
146.202
146.201
146.205
146.201
146.201
146.201
146.201
146.201
146.201
146.201
148.708
146.201
146.201
146.201
146.201
152.434
146.202
146.201
146.213
146.201
146.201
146.235
146.201
146.201
146.201
146.201
146.201
146.201
146.201
146.201
156.017
146.201
146.201
146.201
146.201
146.385
146.201
146.202
146.592
146.202
146.201
146.201
146.201
146.201
146.201
146.201
146.201
146.201
146.201
146.201
146.201
146.377
146.704
146.201
146.201
146.201
146.201
146.201
146.201
146.201
146.201
146.201
146.201
146.201
146.201
146.201
151.454
146.201
146.202
146.201
146.201
146.201
146.202
146.201
146.201
146.201
146.203
146.201
146.201
146.201
146.201
146.201
1076.35
146.712
146.225
146.201
146.201
146.201
146.201
146.201
146.201
146.201
146.201
146.201
146.201
146.201
178.616
146.201
146.201
146.53
155.75
146.201
146.201
146.201
146.207
146.202
146.201
147.356
146.201
146.201
146.201
146.201
148.768
146.201
146.201
146.201
146.201
146.209
150.239
146.201
146.599
150.858
146.201
146.201
146.228
150.676
146.363
146.463
146.201
146.201
146.201
146.201
146.201
146.201
146.201
146.201
146.201
146.201
146.212
149.28
177.718
146.201
146.201
205.269
165.407
146.201
155.491
146.548
162.576
156.124
146.201
146.201
146.201
146.201
146.201
146.716
146.201
154.846
146.201
146.201
294.396
146.201
198.176
150.996
146.201
147.992
146.201
146.201
146.201
146.201
146.201
146.201
146.201
146.201
146.201
146.201
146.201
146.201
146.201
146.201
146.201
146.201
187.87
146.201
146.201
146.201
146.201
146.201
146.201
146.201
148.786
146.201
146.201
146.201
146.201
146.201
146.201
146.201
146.266
146.201
146.201
146.201
151.931
146.201
146.201
157.96
146.201
156.688
146.201
146.201
146.201
157.9
146.201
155.191
146.286
176.597
146.201
146.201
146.201
146.201
146.201
180.341
167.804
146.201
146.201
146.202
146.201
146.202
146.202
146.201
158
146.201
146.201
146.201
158.577
146.201
146.201
502.09
146.201
146.201
157.307
146.201
146.201
146.201
146.201
146.255
146.201
146.203
146.265
146.201
146.201
146.201
146.201
146.201
146.201
146.201
146.201
146.262
146.201
146.201
146.201
146.201
146.217
363.1
146.201
146.201
146.201
146.33
146.201
146.207
146.484
146.202
146.202
146.294
146.201
146.223
146.201
146.227
146.22
146.201
146.201
146.201
146.201
146.201
146.359
146.405
146.201
146.201
146.201
153.923
146.201
146.201
146.201
146.201
146.201
531.71
146.202
146.201
146.386
146.201
146.216
146.201
146.201
146.201
146.201
146.201
146.201
146.201
146.201
146.201
146.225
146.201
146.201
146.201
146.201
146.201
146.201
146.201
146.209
146.201
146.201
146.201
146.257
146.201
146.201
146.201
146.201
146.214
154.889
146.201
146.201
146.201
146.201
146.201
146.201
311.467
146.201
146.201
146.201
146.201
146.201
146.201
146.201
176.572
146.245
146.201
146.205
146.237
146.201
146.201
146.201
146.201
174.749
146.201
146.201
146.201
146.201
146.201
146.201
146.201
146.201
146.201
146.201
146.201
146.201
146.201
146.201
163.035
146.201
146.201
146.201
164.588
146.201
146.201
146.334
146.201
146.201
149.795
146.201
163.039
146.201
146.201
146.201
146.201
146.201
156.826
173.194
146.201
146.201
146.201
146.201
146.201
146.201
146.201
146.201
146.201
177.708
146.201
447.273
146.201
146.201
146.201
172.453
146.201
146.201
146.201
150.241
146.202
146.201
146.201
146.201
356.244
146.206
147.173
146.201
146.201
146.201
146.201
146.201
146.201
146.201
146.201
146.202
146.201
146.271
146.201
146.201
146.201
146.201
146.201
146.201
146.201
146.201
146.201
146.201
146.202
146.201
146.201
146.201
146.201
146.201
147.321
146.201
146.201
146.201
146.201
146.201
146.201
146.201
146.201
146.201
146.201
146.201
146.201
180.185
146.202
146.201
324.163
146.201
146.201
146.201
317.148
147.727
146.201
146.201
146.201
146.201
146.201
146.201
146.201
146.201
146.201
146.201
146.201
146.286
146.725
146.201
146.202
146.201
146.201
146.201
146.201
163.948
146.201
150.726
146.201
146.252
146.207
323.727
146.201
146.208
324.764
146.201
146.201
146.201
146.201
146.201
146.201
146.202
146.201
329.732
146.201
146.201
146.201
163.225
146.201
146.201
146.201
146.201
146.201
150.451
146.201
146.201
183.688
161.661
175.512
146.202
146.259
146.201
146.201
146.201
146.201
146.201
146.201
146.201
146.201
146.201
146.201
146.201
162.832
146.201
146.201
146.201
147.508
146.201
146.201
146.201
146.201
146.201
146.201
146.201
146.201
146.201
154.638
146.201
285.295
146.22
146.201
146.202
146.201
146.201
146.201
146.201
146.201
146.201
148.241
295.263
146.201
146.426
146.202
146.238
146.202
146.201
146.201
146.202
146.201
265.886
185.67
146.201
146.202
146.201
227.042
146.253
148.307
146.204
146.201
390.874
146.201
148.148
146.212
146.225
355.74
146.201
285.812
154.614
179.514
146.202
183.53
230.048
146.201
204.481
146.201
146.201
146.201
146.201
146.202
175.189
146.201
146.201
146.223
178.657
146.201
146.201
146.202
148.923
146.269
146.222
146.202
146.201
146.218
259.71
146.201
146.218
202.83
146.201
396.504
146.204
146.201
146.201
146.219
146.201
146.201
146.201
183.284
154.209
146.225
2105.06
146.201
146.201
151.598
872.817
154.73
146.201
155.072
1023.99
1266.35
146.201
146.201
146.201
146.201
146.201
183.181
146.201
146.203
146.201
146.201
146.201
146.201
154.197
146.201
146.201
147.984
166.449
146.201
146.201
146.201
147.341
146.429
218.767
146.201
146.201
151.967
146.201
146.202
153.784
146.201
162.735
149.195
146.201
146.201
146.205
146.201
146.201
146.203
146.201
146.201
146.201
146.202
146.201
146.201
146.201
146.201
146.201
146.269
458.184
146.201
146.201
146.201
146.201
151.573
146.201
146.201
146.201
146.201
146.201
146.201
167.28
146.226
146.201
146.201
146.201
146.201
146.201
146.201
146.201
305.42
146.201
146.201
325.18
146.201
146.202
146.201
605.363
146.201
146.263
146.326
148.272
146.326
146.201
146.261
146.281
146.201
146.201
148.447
156.142
146.253
153.249
1401.77
146.201
146.201
146.696
146.201
154.703
146.201
146.201
146.27
146.201
146.201
146.201
146.201
146.253
146.201
146.201
146.201
146.201
146.201
146.201
146.201
146.201
146.201
146.201
146.201
146.201
146.201
149.523
146.201
146.201
146.418
146.201
146.201
146.201
146.201
146.201
146.201
146.201
146.201
146.201
146.201
146.201
183.851
146.201
146.201
146.201
146.201
608.76
199.16
146.201
147.628
146.201
151.195
146.201
146.201
146.201
146.206
146.201
146.201
146.201
146.201
146.201
146.203
146.201
153.575
146.202
146.201
152.381
146.206
146.201
146.202
146.208
239.626
146.201
146.238
146.271
155.449
146.201
146.201
146.201
146.201
146.207
146.699
146.202
189.049
146.518
150.183
146.355
146.209
146.224
147.068
146.201
146.209
146.201
146.201
146.201
146.201
146.201
146.201
146.201
146.202
146.201
192.992
146.203
146.201
157.557
146.378
146.202
146.201
146.202
146.205
375.901
146.201
146.201
146.201
146.201
146.201
146.201
146.201
284.724
150.299
146.201
163.584
146.201
157.126
146.201
146.201
146.303
146.204
146.201
146.201
146.201
146.201
274.558
146.201
146.201
146.201
280.328
146.201
146.201
146.201
267.067
146.201
146.201
146.201
146.201
146.201
146.201
146.201
146.201
273.798
146.201
209.185
154.51
158.235
176.674
159.036
146.201
146.201
146.201
146.201
146.201
146.201
146.201
146.201
146.201
146.201
146.201
146.201
146.201
146.201
146.201
146.201
146.201
146.201
146.201
146.201
146.201
146.201
146.201
151.867
146.201
146.201
146.201
146.201
146.202
146.201
146.201
146.201
146.201
146.201
146.201
146.201
146.201
164.815
146.201
146.201
146.201
146.201
146.201
146.201
146.201
146.214
146.201
146.209
146.222
146.201
176.482
156.181
146.201
159.312
146.202
146.268
146.201
146.559
152.574
146.201
146.201
146.201
146.201
146.201
146.201
146.201
146.201
146.201
165.63
146.201
146.201
146.201
173.973
855.501
147.278
146.201
146.201
146.202
146.201
146.201
146.201
146.201
146.201
146.201
146.201
146.201
146.201
146.201
146.201
146.201
146.201
146.201
146.201
146.201
146.201
389.924
146.201
195.043
909.176
200.664
146.201
146.201
146.201
146.201
146.201
148.051
146.202
146.202
146.201
146.201
146.201
146.201
146.201
146.201
146.201
146.201
146.201
147.393
412.624
146.201
146.3
146.201
146.201
146.201
155.944
147.064
146.201
146.201
147.906
146.201
696.681
146.201
146.201
955.751
146.441
147.76
146.201
146.201
146.206
146.201
401.733
146.201
634.04
146.201
146.201
146.201
146.201
146.201
538.424
146.201
146.201
419.181
146.21
535.399
179.488
146.201
146.201
146.201
146.201
146.201
2291.97
146.201
146.201
1087.02
146.201
146.279
163.067
149.159
158.839
622.057
225.226
146.201
146.304
146.201
159.184
146.259
975.24
984.636
1140.66
158.39
146.201
146.201
146.201
146.201
146.201
146.201
146.201
146.201
146.201
146.201
146.201
154.696
157.46
162.884
152.166
148.205
631.905
146.201
146.201
155.917
146.201
146.201
146.201
157.436
154.703
146.201
146.201
146.201
146.201
146.201
146.201
156.184
146.201
146.201
146.201
146.542
146.201
156.165
146.201
157.663
201.365
146.201
146.201
146.201
146.201
146.201
146.201
146.201
146.201
146.201
146.201
147.861
146.201
146.201
146.201
146.201
146.201
146.201
146.201
146.201
146.201
150.004
146.201
146.201
648.353
153.604
149.429
146.201
146.201
146.201
168.981
146.201
146.201
146.201
146.201
146.201
146.201
146.201
327.364
146.201
146.201
146.201
655.076
146.201
146.201
146.201
146.201
146.201
146.201
146.201
146.201
146.201
146.201
146.201
146.201
146.201
146.201
146.201
146.201
146.201
146.201
146.201
146.201
160.472
146.201
146.201
146.201
146.201
146.328
146.201
146.201
146.201
146.201
152.415
146.201
146.201
537.43
146.201
585.325
972.156
181.369
146.201
146.201
146.201
146.201
448.543
146.201
146.201
146.201
146.201
153.341
146.201
146.201
146.201
146.571
146.201
146.201
146.201
146.201
180.732
146.201
146.207
146.201
928.857
159.844
146.201
146.201
146.201
146.201
146.201
146.201
150.475
160.268
146.201
196.284
207.736
146.201
146.201
146.201
153.214
146.201
146.201
146.201
146.203
172.815
146.201
167.543
158.592
146.73
146.201
146.201
162.001
146.205
146.201
146.201
150.982
146.201
146.714
150.832
253.289
146.219
322.524
146.201
162.949
146.201
146.211
146.201
170.882
146.201
175.019
146.204
146.201
146.201
146.201
146.201
146.201
146.201
146.201
146.201
171.875
147.122
156.042
148.542
146.201
147.806
146.598
1402.19
146.201
211.981
146.201
147.381
147.912
146.201
146.209
550.306
146.202
1608.56
156.84
146.381
155.598
146.309
146.201
688.628
146.205
155.684
146.264
337.068
146.205
146.201
146.202
158.19
185.659
274.549
146.201
1208.59
146.201
146.201
146.214
146.201
717.354
181.999
151.332
146.201
146.201
146.269
153.834
146.201
146.216
146.64
146.201
146.224
146.201
146.201
146.201
150.081
155.335
289.155
146.201
146.201
146.201
146.201
146.201
146.201
146.201
333.907
146.201
146.201
223.067
146.201
269.331
146.201
146.201
146.201
227.691
146.201
146.201
146.201
146.201
146.201
146.201
146.201
146.201
146.201
146.201
146.201
260.801
146.201
146.201
146.201
146.201
146.201
146.201
146.201
146.201
146.201
146.201
146.201
146.201
146.201
146.201
146.201
146.201
146.201
146.201
146.201
146.201
146.201
146.201
146.201
146.201
146.201
146.201
146.201
146.201
146.201
146.201
146.201
146.201
146.201
146.201
146.201
146.201
507.081
146.201
311.966
146.201
146.201
146.201
297.942
146.201
146.201
317.706
324.588
146.201
146.201
297.655
146.201
146.201
180.859
146.201
149.277
146.201
146.201
146.201
146.201
559.025
146.201
150.381
146.201
146.201
146.201
146.201
146.202
146.201
146.201
146.201
146.206
146.201
146.201
146.201
146.201
146.201
146.201
146.201
146.201
146.201
146.201
146.201
146.201
146.201
146.201
209.632
146.201
146.201
146.201
146.201
146.678
146.201
325.71
623.593
259.864
146.201
146.201
146.201
146.201
146.201
146.201
146.201
146.201
146.201
146.201
146.201
146.201
146.201
146.201
146.201
146.201
146.201
146.201
146.201
146.201
146.201
146.234
1203.37
146.201
146.201
146.201
146.201
146.201
146.201
146.201
146.201
146.201
633.53
146.201
146.201
146.201
154.346
146.201
146.201
146.201
146.201
146.201
146.201
146.201
146.201
146.201
146.201
146.201
146.201
146.201
146.201
146.201
146.201
146.201
146.201
146.201
146.201
240.23
146.201
146.201
146.332
146.201
146.201
146.201
146.201
778.758
146.201
146.201
146.201
146.201
146.201
146.201
146.201
146.201
146.201
146.201
415.448
146.201
146.201
451.5
431.834
146.202
146.201
146.201
146.201
146.201
146.201
146.201
146.201
544.491
146.201
146.201
146.201
146.201
146.201
146.201
146.201
146.202
146.201
146.201
146.201
146.201
146.201
186.064
146.201
146.201
146.201
146.201
146.208
146.211
146.21
146.201
151.542
146.201
146.201
146.342
146.201
146.206
146.206
146.201
146.201
146.201
146.202
146.201
146.201
146.206
146.201
146.201
146.201
146.201
146.201
146.201
146.201
146.201
146.202
146.214
153.057
146.201
154.598
153.72
146.201
263.022
146.201
146.201
146.201
146.201
146.201
146.201
146.201
865.736
146.201
146.201
152.379
146.201
146.201
146.201
146.201
146.201
146.201
146.201
146.201
146.201
146.201
146.201
146.201
146.201
146.201
154.644
151.031
146.273
146.201
146.201
146.201
146.201
146.252
146.201
146.201
146.201
146.201
146.201
146.201
146.201
146.201
146.201
146.201
147.571
146.201
146.201
146.201
146.201
146.201
146.201
146.255
146.201
146.736
146.201
146.201
146.201
146.201
146.201
146.201
146.201
146.253
146.278
146.201
255.542
146.201
256.443
146.201
146.201
146.201
146.201
146.201
146.201
146.201
146.201
146.201
146.201
146.201
146.201
146.201
146.201
146.201
146.201
146.201
146.201
146.201
146.201
146.201
146.201
146.201
146.201
146.201
146.201
146.201
146.201
146.201
146.201
146.201
146.201
146.201
146.201
146.201
146.202
146.201
146.201
146.201
798.446
146.201
146.201
146.201
146.201
146.201
146.202
146.201
146.201
146.202
150.745
146.201
146.201
146.201
146.201
146.201
146.202
146.201
146.201
146.201
146.202
146.201
146.201
146.201
146.201
146.201
146.201
146.201
146.201
146.201
146.201
146.201
146.201
146.201
146.201
146.201
146.201
146.201
146.201
146.202
146.201
146.202
146.201
146.201
146.201
311.736
334.589
146.201
146.201
146.201
146.201
146.201
146.201
146.201
146.201
146.201
146.201
146.201
382.621
146.201
146.201
397.601
146.201
146.201
146.201
146.201
146.201
146.201
146.201
146.201
146.201
146.201
388.387
146.201
146.201
146.201
324.71
146.201
146.201
146.201
146.201
146.201
146.201
146.201
146.201
146.201
146.201
146.201
146.201
146.201
146.201
146.201
146.201
146.201
146.201
146.201
146.201
146.201
146.201
146.201
146.201
146.201
146.201
146.201
146.201
146.201
146.201
146.201
146.257
146.201
146.201
146.209
146.201
146.201
146.201
146.201
146.201
146.201
146.201
146.201
146.201
146.201
146.201
146.214
146.201
146.201
146.201
146.207
146.206
146.201
146.201
146.201
146.201
146.201
146.201
146.201
146.201
146.201
146.207
146.201
146.201
146.213
146.201
146.201
146.201
146.201
146.201
146.201
146.201
146.201
146.201
146.201
146.201
146.201
146.201
146.201
146.201
146.201
146.201
146.201
146.201
146.201
146.201
146.201
455.519
146.201
146.201
146.201
146.201
146.201
146.201
146.201
146.201
146.201
146.201
146.201
146.201
146.201
146.201
146.201
146.201
146.201
146.201
146.201
146.201
146.201
146.201
146.201
146.209
150.808
146.201
146.201
146.201
146.201
146.201
146.201
442.382
146.201
161.423
146.209
146.201
146.201
146.212
146.201
146.201
146.201
146.201
146.201
146.201
146.201
146.212
146.201
146.201
146.201
165.885
146.209
146.399
146.201
146.201
146.201
146.201
146.211
146.542
146.201
146.201
146.201
146.201
146.201
146.201
146.201
146.201
146.201
146.201
146.201
146.381
146.201
146.201
146.201
146.201
146.201
146.201
146.201
146.201
147.283
146.201
146.201
146.201
158.704
146.201
146.201
146.201
146.201
146.989
146.201
146.201
146.201
146.201
146.201
146.201
146.201
146.201
146.473
146.201
146.301
146.201
150.339
146.201
146.201
146.201
146.201
146.201
146.201
146.201
146.201
146.201
146.201
146.201
146.201
146.201
153.693
146.201
146.201
146.201
146.201
146.201
146.201
146.209
146.201
146.201
146.201
146.201
146.201
146.201
146.211
146.201
146.201
146.201
146.201
146.201
146.201
2653.57
146.201
146.201
146.201
146.201
146.201
146.201
380.5
146.201
146.201
146.201
146.201
146.201
146.201
146.201
146.201
146.201
146.201
146.201
146.201
146.201
146.201
146.201
146.201
146.201
146.201
146.201
146.201
146.201
146.201
146.201
146.201
146.201
146.201
146.201
147.327
146.201
146.201
146.201
146.314
146.201
146.201
146.201