/*--------------------------------*- C++ -*----------------------------------*\
| =========                 |                                                 |
| \\      /  F ield         | OpenFOAM: The Open Source CFD Toolbox           |
|  \\    /   O peration     | Version:  v2012                                 |
|   \\  /    A nd           | Website:  www.openfoam.com                      |
|    \\/     M anipulation  |                                                 |
\*---------------------------------------------------------------------------*/
FoamFile
{
    version     2.0;
    format      ascii;
    class       volScalarField;
    location    "1.5";
    object      ILambda_0_0;
}
// * * * * * * * * * * * * * * * * * * * * * * * * * * * * * * * * * * * * * //

dimensions      [1 0 -3 0 0 0 0];


internalField   nonuniform List<scalar> 
108993
(
189.458
146.201
148.525
146.21
146.217
146.201
146.201
146.203
285.518
149.863
146.204
146.203
146.211
146.204
146.405
146.202
153.571
146.37
146.213
146.201
146.205
146.246
146.201
147.992
146.207
146.201
146.27
146.201
146.201
255.485
161.305
146.203
146.266
296.402
146.212
146.244
146.277
146.22
146.201
146.201
146.201
146.218
146.202
146.207
146.201
146.201
146.266
146.201
146.201
146.201
146.245
146.201
146.201
146.25
146.997
152.808
146.261
147.166
146.256
147.544
154.342
150.409
165.478
146.201
146.211
146.201
146.209
146.329
146.295
147.85
146.505
146.238
146.221
146.275
146.201
7655.17
146.201
182.969
146.248
146.209
867.44
147.05
146.216
146.205
146.342
146.202
146.208
146.203
146.248
146.212
146.248
642.353
146.268
146.204
146.245
146.203
167.738
147.269
300.366
146.268
146.674
146.389
146.313
146.287
149.318
146.224
187.445
146.239
146.217
146.201
146.201
146.238
146.201
146.201
146.217
146.201
146.234
147.874
146.421
391.51
146.329
157.464
146.201
146.254
146.211
146.202
146.201
316.003
155.663
148.81
146.203
151.819
150.084
146.201
146.214
146.206
169.796
146.485
265.89
146.206
146.227
146.376
146.271
149.507
149.525
146.209
151.358
146.201
146.246
146.201
146.201
146.201
146.201
146.201
146.213
146.201
148.954
146.242
146.263
146.207
146.201
146.257
2021.69
146.48
146.202
146.201
146.213
146.201
146.201
146.226
146.212
148.331
146.201
146.209
146.201
146.201
146.201
146.201
157.723
146.208
148.298
146.258
146.24
146.246
146.21
146.284
146.231
146.309
146.796
146.295
146.271
146.246
146.247
146.201
146.231
163.464
146.201
146.304
146.423
146.246
146.379
146.201
146.213
146.241
146.202
146.201
4173.1
146.201
167.079
146.201
146.207
146.229
146.201
146.201
146.201
146.873
147.434
4459.53
146.253
185.037
146.201
146.201
174.04
146.201
146.201
146.201
146.243
151.921
146.201
146.201
146.201
148.872
146.201
146.201
146.214
147.836
146.601
149.107
146.233
146.25
146.306
689.714
146.207
146.243
146.421
146.202
146.201
146.201
146.26
146.24
1233.7
146.222
257.69
146.223
146.257
146.261
146.269
146.203
768.769
146.201
182.939
146.201
146.291
146.202
146.238
146.201
148.121
146.201
146.201
196.59
146.205
146.285
146.201
146.201
146.201
148.083
146.45
146.201
146.386
146.201
146.201
146.201
146.201
146.201
235.335
146.202
146.212
146.201
146.455
146.201
146.289
212.614
146.201
196.332
146.201
183.697
878.029
185.221
168.721
146.353
146.201
146.201
154.509
146.24
172.387
146.201
146.201
146.201
146.201
146.201
146.597
156.172
146.473
146.796
146.201
146.201
146.201
146.396
146.201
183.466
146.201
146.201
146.201
146.201
147.595
146.201
146.201
146.201
149.287
183.815
146.201
146.201
146.201
3574.9
146.201
147.388
146.216
148.978
147.583
224.701
146.213
146.201
146.201
202.779
146.38
146.54
146.746
166.936
146.229
147.002
146.267
146.201
146.201
146.201
146.201
183.743
241.234
146.201
146.203
146.201
146.206
146.201
146.784
146.209
146.201
146.201
147.02
262.534
146.223
146.201
146.201
146.202
146.303
146.201
146.201
146.201
146.697
153.426
146.201
146.213
146.201
146.201
146.201
146.202
146.952
146.201
147.266
146.201
146.201
146.201
146.201
146.201
146.201
146.244
146.201
146.201
146.201
146.215
146.202
189.257
146.201
146.201
146.201
146.211
146.201
146.201
146.201
148.19
168.933
146.201
146.206
146.201
146.201
148.739
146.202
148.644
146.201
151.962
146.201
146.717
146.201
146.201
146.201
146.201
146.234
146.201
146.313
146.201
146.201
146.204
146.201
146.201
146.201
147.915
146.218
148.691
146.201
146.201
146.201
147.742
146.47
457.134
448.692
146.201
146.438
146.201
146.201
146.201
345.917
146.201
146.202
146.216
192.528
178.671
146.201
146.332
146.336
146.201
146.315
146.207
146.201
146.326
146.201
146.201
150.396
146.256
146.201
146.201
146.253
146.205
170.536
146.308
565.031
146.201
146.201
146.202
127.451
146.208
146.201
146.213
152.832
2575.7
2521.94
146.903
146.202
146.203
146.292
146.203
146.202
413.249
146.305
644.93
146.202
146.202
146.202
254.779
146.202
146.327
149.651
146.201
147.222
5553.25
197.071
146.57
146.201
146.201
146.264
347.903
146.201
146.65
146.231
146.201
9247.15
146.204
148.974
146.24
146.201
154.58
146.201
146.201
146.201
146.201
146.201
146.201
146.201
146.221
146.201
149.626
146.235
146.201
146.201
146.666
146.233
146.24
146.222
146.218
146.201
146.203
178.668
146.201
182.815
146.201
146.207
187.571
146.211
217.402
173.498
146.25
147.187
146.219
146.201
146.201
146.201
150.58
146.366
182.048
144.655
146.201
146.201
146.201
196.655
3120.33
146.202
146.201
146.677
146.201
147.866
915.354
146.201
146.201
146.207
146.201
146.201
146.656
146.201
146.201
146.283
146.794
146.201
146.201
147.031
161.681
1785.74
146.45
182.997
146.201
146.201
146.547
146.202
146.201
146.201
146.345
146.201
166.829
146.201
364.757
491.33
146.299
146.201
147.475
158.592
146.219
146.201
146.204
146.213
146.331
146.201
146.355
146.835
146.202
146.201
146.202
146.283
146.202
146.201
146.203
146.23
146.309
146.201
146.227
146.201
146.231
295.521
146.201
146.201
153.977
5654.48
146.201
146.201
146.202
146.201
146.201
146.201
146.201
146.204
146.201
146.358
146.201
146.203
146.201
146.51
146.201
146.21
146.201
146.458
146.205
146.202
146.202
146.203
146.204
146.209
146.202
146.201
146.201
153.961
146.201
146.201
146.201
146.301
146.201
146.201
146.201
148.224
849.313
146.201
146.201
146.201
146.202
146.201
146.201
146.202
146.201
146.201
146.201
146.201
147.733
146.201
184.18
146.201
146.201
146.201
146.247
149.928
146.202
146.201
146.204
146.21
182.949
184.376
146.201
146.374
154.26
146.201
148.062
146.201
146.201
176.935
146.201
178.236
146.201
146.201
146.357
146.201
146.201
146.295
150.146
146.201
146.201
146.249
146.201
146.201
146.201
146.201
519.182
146.201
1651.3
146.201
146.98
146.25
146.201
146.201
146.202
146.201
146.202
147.874
146.202
146.201
146.201
146.201
146.207
146.201
146.203
146.202
146.202
146.202
146.311
146.212
146.201
151.49
146.201
146.202
146.202
146.201
146.201
146.859
146.201
148.216
146.465
147.301
151.049
147.637
146.201
146.201
147.376
146.201
146.201
146.201
146.202
146.221
146.201
146.29
146.201
148.099
146.371
146.208
146.201
146.201
146.201
146.205
262.271
146.585
146.201
146.209
146.201
146.201
146.441
146.638
146.201
146.201
151.304
146.206
146.201
146.332
146.443
146.201
146.201
146.201
146.204
152.258
146.225
146.226
146.201
146.255
146.533
146.201
146.202
146.201
146.201
146.201
222.222
146.201
146.202
146.241
146.202
146.202
9510.16
148.675
146.217
587.16
348.403
146.202
146.201
146.212
146.232
147.638
146.201
146.201
146.212
146.201
146.201
146.201
146.808
146.252
146.218
146.201
146.201
146.201
146.223
146.203
146.201
146.202
146.201
146.302
146.333
146.202
146.201
146.678
146.201
146.201
147.199
272.413
146.941
146.201
148.472
146.201
146.216
146.229
146.202
146.201
147.32
146.201
154.82
146.201
147.495
146.201
146.201
146.204
146.201
146.204
146.201
146.201
146.364
146.201
146.201
146.201
146.201
146.202
146.217
146.202
146.205
146.223
210.78
146.202
146.201
146.22
146.205
146.201
146.201
146.201
146.205
146.201
146.201
146.201
146.201
146.201
146.201
146.491
146.201
146.201
146.201
151.585
214.95
146.202
146.8
146.201
146.201
146.207
146.202
146.201
146.381
146.201
146.201
146.201
146.201
146.201
147.612
146.201
146.201
146.201
146.201
146.203
146.205
146.321
146.201
146.201
157.067
146.201
146.23
146.339
146.201
146.202
146.411
146.201
146.201
146.225
146.675
146.201
146.201
146.201
146.201
146.201
146.201
146.201
146.202
146.351
146.302
648.942
146.201
147.793
146.201
146.201
146.201
146.826
146.201
146.201
146.201
157.504
146.201
146.201
146.201
146.201
146.235
146.201
146.201
146.229
146.206
146.201
146.294
157.4
146.28
146.201
146.201
146.201
146.201
146.202
146.206
162.734
146.283
146.201
146.201
146.205
146.201
157.552
165.418
146.201
146.212
194.662
147.826
146.237
146.204
149.185
146.255
148.591
146.201
146.598
149.08
146.201
146.201
149.875
146.202
147.309
146.332
146.201
146.209
146.201
146.201
146.201
146.201
146.201
146.541
146.201
149.324
146.646
146.201
146.219
146.201
146.201
150.339
146.201
146.202
146.201
146.202
146.203
146.201
151.119
151.559
147.048
146.202
146.201
146.202
146.201
163.953
7510.97
146.201
166.61
146.201
146.703
172.614
146.201
146.201
146.201
146.201
171.506
146.361
146.201
146.201
146.433
146.247
6612.06
146.201
146.202
146.201
146.222
146.23
146.202
199.528
146.201
146.201
146.272
146.201
146.201
146.223
146.203
146.201
146.201
146.201
146.366
149.078
146.201
147.355
146.201
146.315
146.201
147.46
146.201
146.245
146.209
146.207
146.201
146.202
227.451
146.201
146.201
146.202
1034.09
146.201
146.201
172.968
146.201
146.216
364.613
146.201
146.201
146.201
283.776
146.76
146.204
146.202
146.201
146.201
298.13
863.985
146.245
146.201
146.424
146.201
146.201
146.207
146.201
146.201
1160.76
661.454
146.293
146.239
146.201
146.201
146.201
146.211
601.983
146.201
146.203
146.202
146.201
640.841
1004.58
753.322
146.224
157.465
158.103
147.028
195.377
146.201
146.311
147.733
629.394
155.005
146.533
146.201
146.201
146.201
151.207
146.205
146.202
261.47
146.708
159.467
146.201
146.211
146.527
146.201
146.202
146.201
146.201
146.201
162.197
146.29
146.201
146.201
146.736
193.904
578.985
146.201
146.201
146.251
146.201
146.114
146.201
146.201
320.318
146.201
146.201
160.533
146.201
146.201
146.201
146.201
146.201
146.201
146.201
152.702
146.201
146.201
146.201
146.207
146.202
146.201
146.201
146.201
146.201
146.201
146.248
146.209
152.184
146.202
146.222
146.201
950.247
146.201
146.219
146.201
150.769
146.205
146.201
146.201
146.208
146.253
146.244
146.239
146.201
2511.45
146.201
154.767
146.201
146.201
146.265
146.201
146.206
146.201
190.159
148.384
146.201
146.201
146.201
146.203
146.301
146.204
146.202
146.203
146.201
860.882
351.589
160.892
155.751
664.469
146.201
146.218
647.207
175.029
146.201
174.174
148.447
146.201
146.202
146.201
146.201
1934.4
146.201
194.93
146.205
148.692
208.78
148.585
146.201
145.954
146.201
154.479
147.799
146.201
154.832
146.201
165.883
146.201
146.201
146.202
146.203
146.201
146.201
147.074
146.201
167.886
146.202
733.019
146.201
146.201
146.201
146.201
146.201
146.353
146.201
146.201
146.201
146.201
146.201
146.201
824.136
2857.35
146.228
146.201
150.345
146.201
146.201
146.201
155.826
1153.03
146.201
314.434
146.201
146.201
164.676
146.201
146.201
146.201
146.201
146.201
146.201
146.201
146.201
146.207
146.203
146.201
146.201
146.201
415.989
402.35
146.201
294.923
146.201
403.826
146.201
183.337
146.466
146.201
236.823
372.074
146.201
146.251
257.499
964.868
146.531
146.248
146.201
146.202
146.201
146.201
240.838
146.201
146.201
183.678
146.201
148.966
146.201
146.201
146.202
146.202
146.201
146.201
146.202
150.514
146.201
146.201
170.166
189.088
146.204
293.358
214.788
146.201
146.201
146.245
146.245
146.201
223.947
146.201
146.202
146.202
146.201
146.201
227.199
434.588
146.201
146.201
146.201
146.202
146.204
146.201
146.204
146.201
154.006
224.434
146.201
146.253
168.096
146.201
146.201
146.201
146.202
146.201
146.201
147.485
196.845
146.201
146.202
146.224
187.3
146.201
146.201
146.201
210.942
203.212
146.201
148.194
146.201
146.201
148.301
147.411
149.614
146.202
146.201
146.201
153.094
146.201
149.124
146.201
148.427
146.201
149.739
146.202
146.201
147.966
146.202
146.201
166.36
146.201
146.201
146.201
146.201
146.656
146.201
146.201
146.201
146.201
495.581
146.205
146.201
146.201
148.892
146.201
350.559
146.201
459.283
581.256
146.201
1393.9
161.95
146.262
3056.48
146.201
146.201
146.201
146.201
146.201
146.201
146.201
146.201
146.201
146.201
146.222
146.201
146.392
146.201
3168.01
146.201
146.201
146.201
1023.84
146.201
151.964
776.805
915.857
146.201
146.201
146.202
146.201
146.201
866.172
201.263
146.201
364.14
615.404
146.201
146.201
146.201
146.21
146.201
309.354
146.834
146.201
449.271
146.201
146.202
663.948
146.201
334.578
146.201
170.627
146.201
146.201
146.201
146.201
146.201
146.201
148.878
146.201
722.896
159.821
322.454
146.207
166.133
541.01
146.201
148.602
147.895
146.201
146.201
146.201
146.201
148.986
146.201
146.201
1104.61
146.201
1099.52
193.274
146.225
146.201
146.201
146.201
1470.63
146.201
146.201
146.201
146.201
146.201
146.233
146.216
146.201
146.201
146.201
146.219
146.201
146.223
146.201
146.235
146.204
146.203
146.204
146.201
146.201
146.201
146.201
2510.42
146.374
146.201
146.209
146.201
146.201
155.336
146.201
146.205
714.79
425.885
900.838
957.278
146.204
146.201
146.201
146.201
146.201
269.135
146.201
146.204
146.201
146.402
146.201
638.659
696.363
146.201
856.83
146.201
923.628
966.834
146.202
146.201
146.204
146.254
146.201
146.202
146.201
146.201
969.376
571.774
146.201
613.309
158.647
156.079
146.201
146.201
146.201
146.201
146.201
146.47
499.617
146.39
146.201
146.201
146.201
146.201
146.202
146.201
146.201
146.201
146.203
146.411
146.201
146.307
146.574
146.201
148.938
146.375
146.201
146.201
146.201
146.201
146.201
146.201
146.201
146.201
146.201
146.201
146.201
146.201
277.948
146.201
146.201
146.202
146.318
146.208
146.316
146.201
146.201
146.441
146.201
146.201
146.304
884.219
146.201
146.201
146.205
146.201
146.929
146.275
146.954
146.208
146.201
146.202
148.599
146.201
146.201
146.201
146.201
146.201
146.201
146.201
146.201
146.473
146.201
146.201
146.201
146.201
148.253
146.201
146.228
146.308
146.202
146.201
146.201
146.201
146.202
146.201
146.201
146.201
146.201
146.201
146.201
146.201
149.426
146.878
146.201
146.201
146.202
146.201
146.201
146.201
146.201
146.201
146.243
146.201
146.201
146.201
146.201
757.423
146.201
146.202
146.201
146.201
146.201
146.202
146.201
146.201
146.201
146.359
146.201
146.201
146.201
146.201
146.201
689.951
209.715
146.413
146.201
146.252
146.469
146.201
146.201
146.224
146.201
146.201
146.201
146.201
146.202
146.298
146.201
146.201
146.222
146.474
146.201
146.201
146.201
146.202
146.202
146.201
146.204
146.201
146.201
146.201
146.201
396.587
146.201
146.201
146.201
146.201
146.226
162.832
146.201
172.783
163.64
146.201
146.201
146.429
162.746
147.274
147.614
146.201
146.201
146.201
146.201
146.201
146.201
146.201
146.201
146.201
146.201
146.572
573.578
678.338
146.201
146.201
446.289
146.221
146.201
429.94
147.92
410.702
427.141
146.201
146.201
146.201
146.201
146.201
146.428
146.201
426.722
146.201
146.201
188.712
146.201
995.911
2157.08
146.201
146.219
146.201
146.201
146.201
146.201
146.201
146.201
146.201
146.201
146.201
146.201
146.208
146.201
146.201
146.201
146.201
146.201
154.474
146.201
146.201
146.201
146.201
146.201
146.201
146.201
149.481
146.201
146.201
146.201
146.201
146.201
146.201
146.201
146.211
146.201
146.201
146.201
1190.77
146.201
146.201
1258.41
146.201
987.677
146.201
146.201
146.201
1126.63
146.201
1124.87
149.919
672.742
146.201
146.201
146.201
146.201
146.201
860.496
149.934
146.201
146.201
146.202
146.201
146.202
146.202
146.201
147.995
146.243
146.242
146.201
155.156
146.201
146.201
1087.87
146.203
146.201
1184.73
146.201
146.201
146.201
146.201
146.204
146.201
146.204
146.297
146.201
146.201
146.201
146.201
146.201
146.201
146.201
146.201
146.205
146.201
146.201
146.201
146.201
146.202
147.397
146.201
146.201
146.201
146.205
146.201
161.519
147.306
146.806
146.207
155.262
146.201
147.161
146.201
146.237
146.204
146.201
146.201
146.201
146.201
146.294
146.205
146.205
146.201
146.201
146.204
257.715
146.201
146.201
146.201
146.202
146.201
164.433
146.994
146.201
148.697
146.201
146.296
146.201
146.201
146.201
146.201
146.201
146.201
146.201
146.201
146.201
146.307
146.201
146.246
146.206
146.259
146.201
146.201
146.862
146.39
146.201
146.201
146.201
146.453
146.201
146.212
146.201
146.201
146.262
163.118
146.201
146.201
146.201
146.201
146.201
146.201
548.842
146.201
146.201
146.201
146.201
146.201
146.201
146.201
146.212
146.452
146.201
146.218
146.276
146.201
146.201
146.201
146.201
146.22
146.201
146.201
146.201
146.201
146.201
146.201
146.201
146.218
146.201
146.201
146.201
146.201
146.201
146.201
146.207
146.201
146.201
146.201
146.209
146.201
146.201
148.07
146.201
146.201
190.445
146.201
146.209
146.201
146.201
146.201
146.201
146.201
383.171
146.214
146.201
146.201
146.201
146.201
146.201
146.276
146.201
146.201
146.201
240.587
146.201
156.043
146.201
146.201
146.201
251.222
146.201
146.201
146.201
146.228
146.216
146.201
146.201
146.201
238.917
146.232
177.491
146.201
146.201
146.201
146.201
146.201
146.201
146.201
146.201
146.202
146.201
146.207
146.201
146.201
146.201
146.201
146.201
146.201
146.201
146.227
146.201
146.201
146.202
146.201
146.201
146.202
146.201
146.201
177.585
146.201
146.201
146.201
146.201
146.201
146.201
146.201
146.201
146.201
146.201
146.201
146.201
146.417
146.202
146.201
768.398
146.205
146.201
146.201
753.274
146.207
146.201
146.292
146.201
146.201
146.201
146.201
146.201
146.201
146.201
146.201
146.201
146.203
155.886
146.48
150.693
146.201
146.201
146.201
146.203
146.213
146.201
151.289
146.201
146.204
146.211
726.364
146.201
146.216
744.71
146.201
146.201
146.201
146.201
146.201
146.201
146.209
146.201
743.844
146.201
146.201
146.201
895.462
146.201
146.201
146.201
146.202
146.201
146.887
146.201
146.201
887.221
789.334
671.719
146.202
146.203
146.205
146.202
146.201
146.201
146.201
146.204
146.219
146.201
146.201
146.201
146.201
147.976
146.201
146.201
146.201
146.205
146.201
146.201
146.228
146.201
146.208
146.201
146.201
146.213
146.201
146.207
146.202
146.956
191.971
146.207
146.202
146.201
146.209
146.201
146.204
146.201
146.214
320.866
336.542
146.201
164.878
146.207
146.247
146.202
146.209
146.201
146.218
146.231
496.005
459.418
146.201
146.23
146.209
2510.63
146.955
455.192
146.204
146.202
2306.03
146.201
151.839
146.216
146.202
2658.08
146.201
2545.97
3183.82
2949.96
146.202
146.367
147.35
146.201
146.382
146.22
146.201
146.201
146.201
147.233
1070.67
146.201
146.201
146.373
1076.27
146.201
146.205
146.202
146.545
157.932
146.225
146.202
146.201
146.231
908.507
146.204
146.227
804.501
146.201
507.235
152.559
146.392
146.201
146.227
146.246
146.201
146.201
207.18
343.565
146.598
156.548
146.201
146.201
290.187
6041.76
149.279
146.201
866.113
7843.49
9511.17
146.201
146.502
146.505
146.201
146.207
148.78
146.201
146.207
146.201
146.201
146.201
146.201
147.07
146.207
146.201
147.034
153.238
146.201
146.201
146.201
146.707
153.028
162.189
146.201
146.201
148.848
146.201
146.202
146.225
146.201
148.831
146.222
146.201
146.201
146.202
146.217
146.201
146.202
146.202
146.201
146.201
146.203
146.201
146.201
146.201
146.201
146.201
180.728
152.599
146.201
146.201
146.201
146.202
146.271
146.201
146.201
146.204
146.201
146.201
146.201
146.827
191.334
146.201
146.202
146.201
146.201
146.201
146.206
146.201
146.565
146.201
146.201
1144.31
146.202
146.202
146.202
147.408
146.203
145.168
146.33
188.789
146.33
146.201
191.194
188.761
146.201
146.202
146.209
152.471
191.389
147.27
148.309
146.201
146.993
146.485
148.044
168.812
146.201
146.201
189.931
146.201
146.201
146.286
146.201
171.097
146.201
146.201
146.939
146.202
146.206
146.202
146.202
146.201
146.931
146.496
146.202
147.125
146.219
146.221
146.201
146.934
152.553
146.201
146.201
146.201
146.201
146.201
146.201
146.201
146.201
146.202
146.201
146.201
593.574
146.201
146.201
146.201
146.201
147.86
146.262
146.201
157.701
146.201
415.198
146.201
146.201
146.201
146.206
146.201
146.207
146.683
146.201
146.222
146.204
146.265
146.552
146.221
146.201
146.352
146.206
146.201
146.202
146.208
163.421
146.201
146.248
146.438
146.223
146.201
146.201
146.201
146.231
146.207
146.242
146.202
146.66
147.494
146.222
149.122
146.225
150.969
232.885
146.201
146.233
146.201
146.207
146.201
146.201
146.202
146.201
146.201
146.202
146.201
1410.13
146.223
146.201
146.252
146.464
146.202
146.201
146.202
146.231
239.551
146.201
146.201
146.201
146.219
146.201
146.201
146.201
270.836
157.188
146.201
146.534
146.201
146.388
146.201
146.201
153.718
146.204
146.201
146.201
146.201
146.477
244.115
146.201
146.201
146.203
243.043
146.201
146.204
146.201
269.829
146.206
146.201
146.203
146.201
146.201
146.201
146.201
146.201
227.492
146.201
838.034
1244.3
942.33
800.919
877.631
146.201
146.201
146.201
146.201
146.201
146.201
146.201
146.244
146.216
146.201
146.273
146.201
146.201
146.201
146.201
146.201
146.201
146.201
146.202
146.271
146.201
146.201
146.201
146.249
146.201
146.201
146.271
146.203
146.202
146.201
146.201
146.201
146.201
146.201
146.201
146.201
146.201
648.62
146.201
146.201
146.201
146.23
146.201
146.201
146.202
185.329
146.337
146.237
146.202
146.201
470.606
308.757
146.201
377.288
146.228
174.474
146.201
175.987
147.318
146.201
146.201
146.201
146.201
146.201
146.201
146.202
146.201
146.201
260.225
146.201
146.201
146.201
312.066
146.32
146.226
146.201
146.524
146.379
146.201
146.201
146.201
146.201
146.201
146.201
146.393
146.201
146.201
146.201
146.266
146.201
146.201
146.201
146.201
146.201
146.201
147.585
146.201
149.123
147.409
153.014
146.201
146.201
146.201
146.201
146.201
559.973
152.839
154.602
146.201
146.32
146.201
146.334
146.201
146.201
146.201
146.204
146.201
146.471
146.318
146.201
146.204
146.201
146.201
146.201
146.213
146.203
146.201
146.201
468.954
146.201
148.973
146.212
146.201
190.101
149.287
164.07
146.201
146.331
146.206
146.201
146.245
146.201
312.58
146.201
146.201
146.201
146.201
146.201
169.081
146.201
146.537
754.033
146.204
758.201
147.212
146.201
146.532
146.201
146.201
146.201
619.571
146.201
146.201
146.432
146.201
146.203
146.393
148.178
152.946
750.367
193.16
146.201
146.211
146.201
153.056
146.334
723.307
146.326
146.925
153.23
146.334
146.201
146.201
146.201
146.202
146.202
146.352
146.201
146.201
146.234
146.201
271.83
157.438
154.04
191.442
166.634
246.122
146.201
146.201
387.692
146.201
146.201
146.201
153.633
379.639
146.201
146.201
146.202
146.201
146.206
146.201
417.319
146.201
146.203
146.201
187.837
146.201
157.718
146.201
146.21
146.261
146.201
146.201
146.201
146.201
146.201
146.201
146.203
146.201
146.201
146.201
146.203
146.201
146.201
146.201
146.225
146.201
146.205
146.221
146.201
146.201
147.168
146.201
146.201
146.25
146.236
193.158
146.201
146.201
146.201
156.984
146.201
146.201
146.202
146.201
146.201
146.201
146.201
146.374
146.202
146.201
146.205
146.806
146.201
146.201
146.201
146.201
146.201
146.201
146.201
146.201
146.201
146.201
146.201
146.201
146.201
146.201
146.201
147.257
146.201
146.201
146.201
146.201
146.22
146.201
146.205
146.201
146.201
172.9
146.201
146.202
146.297
146.201
146.617
146.201
146.201
146.257
146.201
146.5
868.078
149.431
146.201
146.201
148.66
146.201
420.078
146.201
146.201
146.201
146.212
648.945
146.201
146.201
146.201
146.229
146.201
146.201
146.201
146.201
149.424
146.201
146.205
146.201
151.94
891.998
146.201
146.201
146.201
146.201
146.201
146.201
557.194
581.167
146.201
146.295
463.552
146.205
146.206
146.201
420.839
146.201
146.201
146.201
146.807
428.555
146.201
150.137
492.567
274.078
146.201
146.201
319.248
159.49
146.201
146.201
489.368
146.202
146.222
146.209
162.745
146.215
146.261
146.201
152.686
146.201
147.057
146.201
453.622
146.201
595.406
149.806
146.201
146.201
146.201
146.201
146.201
146.201
146.201
146.201
153.09
146.223
146.24
517.786
146.201
441.062
199.844
155.52
146.201
153.91
146.207
146.225
146.225
146.201
146.248
1071.12
146.202
2024.26
174.929
146.218
146.215
146.872
146.201
146.333
146.202
146.217
146.206
606.38
146.202
146.201
147.018
147.579
231.583
146.255
146.201
150.085
146.201
146.244
150.789
146.201
146.259
350.465
148.25
146.201
146.201
146.295
146.214
146.201
146.203
146.218
146.201
147.506
146.201
146.201
146.201
146.315
146.213
1327.72
146.201
146.201
146.201
146.201
146.201
146.201
146.201
747.562
146.201
146.201
1347.99
146.201
989.486
146.201
146.201
146.201
1603.49
146.201
146.201
146.201
146.201
146.201
146.201
146.201
146.201
146.201
146.276
146.201
1231.01
146.201
146.201
146.201
146.201
146.201
146.201
146.203
146.201
146.201
146.201
146.201
146.201
146.201
146.201
146.201
146.201
146.201
146.201
146.201
146.201
146.201
146.39
146.408
146.201
146.201
146.201
146.201
146.201
146.201
146.201
146.201
146.201
146.201
146.201
146.201
146.201
146.464
146.201
2500.03
146.201
146.201
146.202
146.414
146.201
146.201
1951.11
2545.19
146.201
146.201
3552.68
146.201
146.201
3429.14
146.201
400.599
146.201
146.201
146.201
146.201
146.304
146.201
561.94
146.201
146.201
146.201
146.201
146.208
146.201
146.201
146.201
146.225
146.201
146.201
146.201
146.201
146.201
146.201
146.201
146.201
146.201
146.201
146.201
146.201
146.201
146.201
1030.96
146.201
146.201
146.201
146.201
174.691
146.201
146.266
146.35
746.713
146.201
146.201
146.201
146.201
146.201
146.201
146.201
146.201
146.201
146.201
146.201
146.201
146.201
146.201
146.201
146.201
146.201
146.201
146.201
146.201
146.201
147.892
6468.49
146.201
146.201
146.201
146.201
146.201
146.205
146.201
146.201
146.201
4771.04
146.201
146.201
146.201
775.221
146.201
146.201
146.201
146.201
146.201
146.201
146.201
146.201
146.201
146.201
146.201
146.201
146.201
146.201
146.201
146.201
146.201
146.201
146.201
146.21
146.224
146.201
146.201
267.155
146.201
146.201
146.201
146.202
2054.27
146.201
146.254
146.201
146.201
146.201
146.201
146.201
146.201
146.201
146.201
4569.4
146.201
146.201
3118.65
3062.63
146.234
146.201
146.201
146.201
146.201
146.201
146.201
146.201
146.37
146.201
146.201
146.201
146.201
146.201
146.201
146.201
163.694
146.201
146.201
146.201
146.201
146.201
168.008
146.201
146.201
146.201
146.201
146.208
180.12
146.547
146.201
156.285
146.201
146.201
148.892
146.201
146.206
146.209
146.201
146.201
146.201
157.285
146.201
146.201
146.209
146.201
146.201
146.201
146.201
146.201
146.201
146.201
146.201
146.415
146.614
797.166
146.201
740.104
741.645
146.201
146.226
146.201
146.201
146.201
146.201
146.201
146.201
146.201
1696.34
146.206
146.201
756.353
146.201
146.201
146.201
146.201
146.201
146.201
146.201
146.201
146.201
146.201
146.201
146.201
146.201
146.201
789.267
766.548
146.383
147.211
146.201
146.201
146.201
146.299
146.201
146.201
146.201
146.201
146.201
146.201
146.201
146.242
146.201
146.201
148.679
146.201
146.201
146.201
146.201
146.201
146.201
146.302
146.201
146.212
146.201
146.201
146.201
146.201
146.202
146.201
146.201
146.353
146.404
146.201
146.222
146.201
146.219
146.201
146.201
146.201
146.201
146.201
146.201
146.201
146.201
146.201
146.201
146.201
146.201
146.201
146.201
146.201
146.201
146.201
146.201
146.201
146.201
146.201
146.201
146.201
146.201
146.201
146.201
146.324
146.201
146.201
146.201
146.201
146.201
146.201
146.201
146.201
146.202
146.201
146.201
146.201
146.782
146.201
146.201
146.201
146.201
146.201
146.202
146.201
146.201
146.202
176.704
146.201
146.201
146.201
146.201
146.201
146.202
146.201
146.201
146.201
146.202
146.201
146.201
146.201
146.201
146.201
146.201
146.201
146.201
146.201
146.201
146.201
146.201
146.201
146.201
146.201
146.201
146.201
146.201
146.202
146.201
146.202
146.201
146.201
146.201
146.268
146.289
146.201
146.201
146.201
146.201
146.201
146.201
146.201
146.201
146.202
146.201
146.201
146.264
146.201
146.201
146.306
146.201
146.201
146.201
146.201
146.201
146.201
146.201
146.21
146.201
146.201
146.285
146.201
146.201
146.201
146.34
146.201
146.201
146.201
146.201
146.201
146.201
146.201
146.201
146.201
146.201
146.201
146.201
146.201
146.201
146.201
146.201
146.201
146.201
146.201
146.201
146.201
146.201
146.201
146.201
146.201
146.201
146.201
146.201
146.201
146.201
146.201
146.254
146.201
146.201
171.82
146.201
146.201
146.201
146.201
146.201
146.201
146.201
146.201
146.201
146.201
146.201
171.761
146.202
146.201
146.201
164.669
164.617
146.202
146.201
146.201
146.201
146.201
146.201
146.205
146.201
146.201
164.409
146.201
146.201
170.106
146.201
146.201
146.201
146.201
146.201
146.201
146.201
146.201
146.201
146.201
146.201
146.201
146.201
146.201
146.201
146.201
146.201
146.201
146.201
146.201
146.201
146.201
146.344
146.201
146.201
146.201
146.201
146.201
146.201
146.201
146.201
146.201
146.201
146.201
146.201
146.201
146.201
146.201
146.201
146.774
146.201
146.674
146.201
146.201
146.201
146.851
146.21
146.408
146.201
146.201
146.201
146.201
146.201
146.201
146.235
146.201
146.221
146.216
146.201
146.201
146.368
146.201
146.201
146.201
146.201
146.201
146.201
146.201
146.255
146.201
146.201
146.201
150.583
146.216
146.206
146.201
146.201
146.201
146.201
146.222
146.253
146.201
146.201
146.201
146.201
146.201
146.201
146.201
146.201
146.201
146.201
146.201
146.206
146.201
146.201
146.201
146.202
146.201
146.202
146.202
146.201
152.879
146.201
146.202
146.201
156.641
146.201
146.201
146.201
146.201
146.209
146.201
146.201
146.201
146.201
146.201
146.201
146.201
146.201
146.205
146.201
147.86
146.201
146.212
146.201
146.201
146.201
146.201
146.201
146.201
146.201
146.201
146.201
146.201
146.201
146.201
146.201
146.528
146.201
146.201
146.201
146.201
146.201
146.201
146.886
146.201
146.201
146.201
146.201
146.201
146.201
146.234
146.201
146.201
146.201
146.201
146.201
146.201
244.045
146.201
146.201
146.201
146.201
146.201
146.201
146.733
146.201
146.201
146.202
146.202
146.201
146.201
146.201
146.201
146.201
146.201
146.201
146.201
146.202
146.201
146.201
146.201
146.201
146.201
146.201
146.201
146.201
146.202
146.201
146.202
146.201
146.207
146.201
146.213
146.201
146.217
146.201
146.225
146.201
146.201
146.201
146.201