/*--------------------------------*- C++ -*----------------------------------*\
| =========                 |                                                 |
| \\      /  F ield         | OpenFOAM: The Open Source CFD Toolbox           |
|  \\    /   O peration     | Version:  v2012                                 |
|   \\  /    A nd           | Website:  www.openfoam.com                      |
|    \\/     M anipulation  |                                                 |
\*---------------------------------------------------------------------------*/
FoamFile
{
    version     2.0;
    format      ascii;
    class       volScalarField;
    location    "1.5";
    object      k;
}
// * * * * * * * * * * * * * * * * * * * * * * * * * * * * * * * * * * * * * //

dimensions      [0 2 -2 0 0 0 0];


internalField   nonuniform List<scalar> 
108993
(
8.70772e-05
8.64856e-05
8.54491e-05
8.7802e-05
8.75618e-05
7.99848e-05
8.58275e-05
8.50386e-05
0.000132025
8.66085e-05
8.78824e-05
8.78086e-05
8.8437e-05
8.54633e-05
8.60881e-05
8.415e-05
8.472e-05
8.63411e-05
8.76566e-05
8.62964e-05
8.70291e-05
0.00010189
8.49058e-05
8.73313e-05
9.16504e-05
8.62631e-05
0.0015238
8.70264e-05
8.8122e-05
8.21017e-05
0.0344879
8.77797e-05
0.00153944
8.77167e-05
9.42118e-05
8.7419e-05
0.000550271
8.8575e-05
8.50731e-05
8.60978e-05
8.8622e-05
8.82257e-05
8.64863e-05
0.000168185
8.62517e-05
8.24015e-05
0.00138092
8.65488e-05
8.87818e-05
8.71437e-05
0.000104483
8.84682e-05
8.66936e-05
0.000109685
8.76569e-05
8.7973e-05
0.000180205
8.70177e-05
8.54038e-05
8.8513e-05
8.74496e-05
8.83965e-05
8.68924e-05
8.54472e-05
9.50774e-05
8.81911e-05
0.000109141
8.87912e-05
8.85324e-05
8.74046e-05
8.65789e-05
8.73235e-05
8.72997e-05
8.77787e-05
8.59328e-05
0.0874122
8.49545e-05
8.87855e-05
0.000154307
9.07665e-05
8.64132e-05
8.58174e-05
8.71542e-05
8.91424e-05
8.81079e-05
8.62615e-05
8.82212e-05
8.58198e-05
8.684e-05
9.0856e-05
8.80374e-05
0.0649586
8.90302e-05
9.2258e-05
8.87288e-05
8.73433e-05
0.0205893
8.34744e-05
0.041995
0.00013025
8.86859e-05
9.57558e-05
8.85071e-05
8.80783e-05
8.43834e-05
9.35233e-05
8.81246e-05
9.93574e-05
9.23623e-05
8.81532e-05
8.55298e-05
8.84576e-05
8.7626e-05
8.70537e-05
8.74251e-05
8.54958e-05
8.58109e-05
8.49479e-05
8.86082e-05
0.0900595
8.67743e-05
9.23926e-05
8.62814e-05
8.27112e-05
8.82607e-05
8.68658e-05
8.73451e-05
8.58648e-05
0.000108231
0.00011203
8.60444e-05
9.64266e-05
8.91046e-05
8.48558e-05
8.73702e-05
8.51379e-05
9.02492e-05
8.60941e-05
8.55595e-05
8.64201e-05
8.5919e-05
0.000322741
8.67436e-05
9.10749e-05
9.48957e-05
8.72774e-05
8.50206e-05
8.48821e-05
8.66858e-05
8.66993e-05
8.67814e-05
8.46974e-05
8.46516e-05
8.75624e-05
8.78005e-05
8.66595e-05
8.8646e-05
0.000139673
0.000697426
8.6949e-05
8.7676e-05
0.00476163
0.0228372
8.6213e-05
8.64383e-05
8.76785e-05
8.67118e-05
8.48781e-05
8.47958e-05
8.85297e-05
8.89055e-05
8.75816e-05
8.76654e-05
8.58125e-05
8.67622e-05
8.63277e-05
8.63328e-05
8.55568e-05
8.79304e-05
8.69783e-05
8.58635e-05
8.58712e-05
0.000118483
7.26226e-05
8.85719e-05
8.72083e-05
0.000120397
8.72086e-05
8.71129e-05
7.31191e-05
8.7315e-05
0.000157214
8.57389e-05
8.71532e-05
8.79259e-05
8.64531e-05
8.82438e-05
8.73388e-05
8.80182e-05
7.58902e-05
8.77687e-05
8.77687e-05
8.54904e-05
9.11752e-05
8.75248e-05
8.42944e-05
0.000112069
8.72541e-05
8.71111e-05
8.44857e-05
8.5254e-05
8.8108e-05
8.60315e-05
8.65853e-05
8.45788e-05
8.29035e-05
8.56789e-05
0.000100055
0.000122908
0.000132325
8.69781e-05
8.55071e-05
8.99911e-05
8.65092e-05
8.57181e-05
8.41287e-05
0.000137424
8.93853e-05
8.76944e-05
8.48437e-05
8.02163e-05
8.7171e-05
8.49963e-05
8.49e-05
9.01947e-05
0.000259799
0.000106401
8.99222e-05
8.63515e-05
0.000165904
0.00111374
8.99028e-05
8.20768e-05
0.000133251
0.000110457
8.63418e-05
9.20484e-05
8.65601e-05
0.000178239
9.41118e-05
0.101385
9.41021e-05
9.13859e-05
8.76801e-05
0.000102596
0.000187175
0.000100804
8.68155e-05
0.00194225
8.19652e-05
9.33297e-05
8.54954e-05
8.818e-05
8.49862e-05
1.34591e-05
8.69357e-05
8.96735e-05
8.8549e-05
8.18607e-05
8.75416e-05
8.32386e-05
8.74772e-05
8.721e-05
8.57118e-05
8.62105e-05
8.66277e-05
0.00650008
8.97361e-05
8.79435e-05
8.68422e-05
8.75768e-05
8.41289e-05
8.2484e-05
8.58801e-05
9.40805e-05
8.71418e-05
8.74626e-05
8.76753e-05
8.82782e-05
8.02536e-05
8.66474e-05
0.000109931
8.8069e-05
0.000129011
8.6972e-05
8.72194e-05
0.163407
0.000104139
8.81746e-05
8.04676e-05
8.52233e-05
8.46606e-05
8.77719e-05
8.41993e-05
9.08904e-05
8.46137e-05
8.33611e-05
8.54286e-05
8.40487e-05
8.85128e-05
8.78898e-05
8.87379e-05
8.53687e-05
8.64739e-05
8.78892e-05
8.55304e-05
8.30877e-05
8.60227e-05
8.62672e-05
9.33997e-05
8.6304e-05
8.32053e-05
8.32262e-05
8.25708e-05
8.4555e-05
8.62473e-05
8.61486e-05
8.81675e-05
0.0005122
8.81319e-05
8.87558e-05
8.85846e-05
0.00010637
0.000148409
8.67229e-05
8.64425e-05
8.76184e-05
8.83471e-05
8.78245e-05
9.53176e-05
9.04421e-05
8.66419e-05
8.59733e-05
8.76212e-05
8.60886e-05
8.64561e-05
8.61846e-05
8.59226e-05
9.34147e-05
8.64191e-05
8.93295e-05
8.27159e-05
8.27098e-05
8.62316e-05
8.61989e-05
8.71187e-05
8.5985e-05
8.16973e-05
8.80323e-05
8.03517e-05
8.90308e-05
8.58436e-05
8.94526e-05
8.67957e-05
8.7077e-05
8.78484e-05
8.795e-05
0.000100083
8.69906e-05
8.74903e-05
8.47761e-05
8.75487e-05
8.61398e-05
8.68118e-05
8.90538e-05
8.72777e-05
8.80259e-05
9.15478e-05
8.44811e-05
8.75736e-05
8.36483e-05
8.41602e-05
8.80807e-05
8.50225e-05
8.64594e-05
8.22897e-05
8.60072e-05
8.49898e-05
8.63552e-05
8.80281e-05
8.48368e-05
8.28382e-05
8.39467e-05
8.53605e-05
8.48264e-05
9.00015e-05
8.57685e-05
8.80516e-05
8.62359e-05
0.000111821
8.98613e-05
8.77222e-05
8.47302e-05
8.76508e-05
8.74383e-05
8.30291e-05
8.57579e-05
8.14698e-05
8.6022e-05
8.49392e-05
8.61288e-05
8.5646e-05
8.4619e-05
8.55825e-05
8.72004e-05
0.000153074
8.71142e-05
8.59601e-05
8.01535e-05
8.69649e-05
8.66152e-05
8.66311e-05
8.33332e-05
8.38333e-05
8.78974e-05
8.13022e-05
8.74932e-05
8.30324e-05
8.46344e-05
8.22233e-05
8.46119e-05
8.66574e-05
8.58946e-05
0.00011009
8.63752e-05
8.70474e-05
8.60693e-05
8.73769e-05
8.79784e-05
0.000373209
8.64015e-05
8.87309e-05
8.88345e-05
8.23461e-05
8.74247e-05
8.7924e-05
8.5555e-05
8.78697e-05
8.79803e-05
8.32654e-05
8.66522e-05
8.70421e-05
8.84098e-05
8.939e-05
8.87594e-05
8.67985e-05
8.68737e-05
8.63074e-05
8.86231e-05
8.639e-05
8.06208e-05
8.71141e-05
8.15884e-05
8.71352e-05
8.66025e-05
8.47747e-05
8.491e-05
8.39482e-05
8.35265e-05
8.54618e-05
9.52356e-05
8.75589e-05
0.000388228
8.62432e-05
8.81749e-05
9.28095e-05
0.00154922
8.78794e-05
8.55836e-05
8.77764e-05
8.60291e-05
0.0359323
0.000363893
8.82434e-05
0.000153502
8.55857e-05
8.55226e-05
8.64354e-05
8.61131e-05
8.82422e-05
8.6914e-05
8.78675e-05
9.58765e-05
8.63963e-05
8.63623e-05
8.25847e-05
9.58027e-05
8.81305e-05
8.47516e-05
8.65841e-05
0.000118113
0.0157488
0.000187204
8.67114e-05
8.7662e-05
8.73854e-05
8.69839e-05
0.00104124
8.60817e-05
8.74161e-05
8.74499e-05
8.61613e-05
0.220062
8.82404e-05
8.76172e-05
9.81133e-05
8.50686e-05
8.73886e-05
8.82786e-05
8.86943e-05
8.41861e-05
8.37699e-05
8.71385e-05
8.74754e-05
8.83623e-05
8.62483e-05
8.64051e-05
8.79951e-05
8.63234e-05
8.81316e-05
8.42727e-05
8.61894e-05
8.54838e-05
8.59189e-05
8.84101e-05
8.8579e-05
8.6007e-05
8.74627e-05
8.78285e-05
8.59653e-05
8.4808e-05
8.69273e-05
8.69348e-05
8.82614e-05
8.82159e-05
8.77371e-05
8.44628e-05
8.53971e-05
8.80224e-05
8.69515e-05
8.53055e-05
8.48533e-05
8.46726e-05
8.882e-05
8.79322e-05
8.49051e-05
0.00293512
8.82859e-05
8.59689e-05
8.51226e-05
8.73643e-05
0.463635
9.89579e-05
8.75512e-05
8.30038e-05
8.5774e-05
8.75175e-05
0.00108136
8.95686e-05
8.79369e-05
8.77792e-05
8.38076e-05
8.3351e-05
8.32718e-05
8.68887e-05
8.68544e-05
8.84945e-05
9.51593e-05
8.42101e-05
8.71429e-05
8.82883e-05
8.59322e-05
8.88411e-05
9.28031e-05
8.75111e-05
8.52706e-05
8.54438e-05
8.33055e-05
8.80953e-05
8.32318e-05
8.86355e-05
8.36909e-05
8.62605e-05
8.71525e-05
8.51755e-05
8.91135e-05
0.000123065
8.3929e-05
8.82636e-05
8.62238e-05
8.77951e-05
8.82624e-05
8.7928e-05
8.57322e-05
8.5286e-05
8.27063e-05
8.73397e-05
8.37294e-05
8.67628e-05
8.75374e-05
8.61255e-05
8.72664e-05
8.83905e-05
8.65777e-05
8.89776e-05
8.6008e-05
8.79158e-05
8.38649e-05
8.5207e-05
8.82512e-05
8.85839e-05
9.31414e-05
8.74978e-05
8.7625e-05
8.81784e-05
8.93847e-05
0.0232479
8.7228e-05
8.53266e-05
8.71888e-05
8.76323e-05
8.67256e-05
8.73503e-05
8.50085e-05
8.67951e-05
8.51433e-05
8.38456e-05
8.82586e-05
8.62592e-05
8.7718e-05
8.62522e-05
8.75395e-05
8.83721e-05
8.57044e-05
0.000107283
8.61627e-05
8.69056e-05
8.47816e-05
8.58043e-05
8.66624e-05
8.7161e-05
8.52819e-05
8.65489e-05
8.08625e-05
8.79646e-05
8.61767e-05
8.4034e-05
7.88489e-05
8.65483e-05
8.02555e-05
7.6634e-05
8.70298e-05
8.39535e-05
0.000156456
8.53301e-05
8.84776e-05
8.43325e-05
8.78364e-05
8.46043e-05
8.57422e-05
8.86067e-05
8.87535e-05
8.83203e-05
8.27408e-05
8.157e-05
8.9801e-05
8.56582e-05
8.16149e-05
8.70319e-05
8.80494e-05
8.61353e-05
8.7871e-05
8.65356e-05
8.71938e-05
8.12369e-05
8.98829e-05
8.84869e-05
8.26173e-05
8.18159e-05
8.65757e-05
0.000181362
8.66031e-05
8.74478e-05
8.45999e-05
8.72617e-05
8.47669e-05
9.1333e-05
8.50685e-05
8.42065e-05
8.66363e-05
8.84097e-05
0.000290944
8.04425e-05
8.12252e-05
8.90754e-05
8.30607e-05
8.73891e-05
8.53921e-05
9.92695e-05
8.54961e-05
8.71744e-05
8.75686e-05
8.70919e-05
8.7941e-05
8.6237e-05
8.4278e-05
8.70727e-05
8.70081e-05
8.36065e-05
8.77576e-05
8.78729e-05
8.73981e-05
8.92239e-05
8.54223e-05
8.5702e-05
8.73739e-05
8.78521e-05
8.44306e-05
8.51153e-05
8.75899e-05
8.66108e-05
8.71263e-05
8.42598e-05
8.60644e-05
8.76577e-05
8.43499e-05
8.84636e-05
8.46926e-05
8.73588e-05
8.87688e-05
8.56405e-05
8.45053e-05
8.73704e-05
8.61423e-05
8.80402e-05
8.81767e-05
8.89681e-05
8.95765e-05
8.77776e-05
9.00249e-05
8.77751e-05
8.3566e-05
8.50176e-05
8.93331e-05
8.37309e-05
8.55405e-05
8.44195e-05
0.000127446
8.90363e-05
8.56868e-05
8.77469e-05
8.6456e-05
8.94313e-05
8.67998e-05
8.20561e-05
8.77648e-05
8.76724e-05
8.49937e-05
9.17396e-05
8.78602e-05
8.61326e-05
8.68107e-05
8.86846e-05
8.78158e-05
8.6214e-05
8.8882e-05
8.66771e-05
8.5864e-05
8.29008e-05
8.60462e-05
9.17316e-05
0.000106314
8.74987e-05
8.6467e-05
8.67195e-05
8.76205e-05
8.69249e-05
8.43658e-05
8.87541e-05
8.27257e-05
9.28035e-05
8.50963e-05
9.40637e-05
8.6532e-05
8.81177e-05
8.91695e-05
8.56767e-05
8.80207e-05
8.3171e-05
8.78774e-05
8.56014e-05
8.59992e-05
8.92941e-05
8.63788e-05
8.75043e-05
0.221532
8.74575e-05
8.64593e-05
8.52565e-05
8.70516e-05
0.000100031
8.71383e-05
8.77311e-05
8.37702e-05
8.49742e-05
8.68742e-05
8.39749e-05
8.68371e-05
8.64504e-05
8.43627e-05
8.53498e-05
8.55638e-05
8.67662e-05
8.7572e-05
8.66909e-05
8.54455e-05
8.40222e-05
8.53371e-05
8.46079e-05
8.88866e-05
8.67501e-05
8.75079e-05
8.72071e-05
8.92165e-05
8.56527e-05
8.40081e-05
8.74106e-05
8.9628e-05
8.87166e-05
0.000106182
8.45131e-05
8.82741e-05
8.61878e-05
8.90363e-05
8.69739e-05
8.68704e-05
8.66897e-05
8.78081e-05
7.8621e-05
8.73452e-05
8.00564e-05
8.72027e-05
7.91955e-05
8.76495e-05
8.71131e-05
8.06421e-05
8.64248e-05
8.70271e-05
8.9288e-05
8.08939e-05
8.24181e-05
8.61632e-05
8.68373e-05
8.17485e-05
8.62196e-05
8.78205e-05
8.68564e-05
8.32266e-05
8.79185e-05
8.57523e-05
8.62639e-05
8.68288e-05
8.5037e-05
8.13031e-05
8.63744e-05
8.57723e-05
8.77135e-05
9.00262e-05
8.61525e-05
8.4274e-05
7.86579e-05
8.21187e-05
8.50321e-05
8.68951e-05
8.6112e-05
9.23835e-05
8.67297e-05
0.000102783
8.59541e-05
8.61097e-05
8.7218e-05
0.000163663
8.46241e-05
8.57534e-05
8.72307e-05
8.4984e-05
8.65104e-05
8.73248e-05
8.50466e-05
9.01703e-05
8.68361e-05
8.62819e-05
8.60005e-05
8.61434e-05
8.79548e-05
8.70515e-05
8.39192e-05
8.53581e-05
8.40084e-05
8.79617e-05
8.68676e-05
8.73048e-05
8.95263e-05
8.83412e-05
8.64164e-05
8.48527e-05
8.79353e-05
8.73555e-05
8.84988e-05
8.61164e-05
8.43284e-05
8.82243e-05
8.59897e-05
8.81165e-05
0.000134985
8.81816e-05
8.42822e-05
8.9035e-05
8.67718e-05
8.17411e-05
8.48743e-05
8.41058e-05
8.49067e-05
8.76313e-05
8.93648e-05
8.53841e-05
8.8272e-05
8.50491e-05
8.76213e-05
8.29022e-05
8.47084e-05
8.59061e-05
0.000107102
8.69074e-05
8.70434e-05
8.44874e-05
8.31966e-05
8.48018e-05
8.81036e-05
8.64652e-05
8.71177e-05
8.76145e-05
8.48777e-05
8.71868e-05
8.62055e-05
9.27036e-05
8.59289e-05
8.63148e-05
8.28752e-05
8.76645e-05
8.55296e-05
8.55675e-05
8.53313e-05
8.82115e-05
8.24629e-05
8.59989e-05
8.78079e-05
8.71733e-05
8.65881e-05
8.62394e-05
8.35064e-05
8.68196e-05
8.35383e-05
0.0243646
8.31982e-05
8.41597e-05
0.0154193
8.74841e-05
0.000117742
8.38395e-05
8.56189e-05
8.49898e-05
8.60494e-05
8.39138e-05
8.63398e-05
8.72927e-05
8.71325e-05
8.5901e-05
8.81052e-05
8.86741e-05
8.5508e-05
8.95843e-05
8.69635e-05
8.48908e-05
8.56003e-05
8.40513e-05
8.59736e-05
8.36041e-05
8.72549e-05
8.41911e-05
8.69737e-05
8.48861e-05
8.62979e-05
8.66129e-05
8.70971e-05
8.96093e-05
8.65292e-05
8.55761e-05
8.48097e-05
8.56681e-05
8.6936e-05
8.6984e-05
8.79513e-05
7.93736e-05
8.70924e-05
8.69906e-05
8.57286e-05
8.85854e-05
8.70015e-05
8.31912e-05
8.35177e-05
8.62536e-05
0.0164456
8.6634e-05
8.81277e-05
8.80858e-05
0.000140699
8.67381e-05
8.86444e-05
8.62148e-05
8.82668e-05
8.78836e-05
8.77685e-05
8.86155e-05
8.84859e-05
9.02957e-05
8.75386e-05
0.000232811
0.294331
8.61433e-05
8.49076e-05
8.70882e-05
8.76314e-05
8.81894e-05
8.82432e-05
0.000270735
8.45055e-05
8.6891e-05
9.24639e-05
8.58581e-05
8.66912e-05
8.61813e-05
8.75663e-05
8.67657e-05
8.22871e-05
8.70278e-05
8.6579e-05
8.57121e-05
8.2861e-05
8.83032e-05
8.42825e-05
8.64887e-05
8.66291e-05
8.87311e-05
8.90649e-05
8.63072e-05
8.63051e-05
8.47602e-05
8.62843e-05
9.85814e-05
8.86938e-05
9.01139e-05
8.99648e-05
8.81461e-05
9.23428e-05
8.37967e-05
8.17753e-05
8.73242e-05
8.43002e-05
8.64886e-05
8.65877e-05
8.51893e-05
8.4767e-05
8.72576e-05
8.75541e-05
8.79221e-05
8.7474e-05
8.74644e-05
8.61348e-05
8.46522e-05
8.65407e-05
8.80252e-05
8.75987e-05
8.2114e-05
8.9217e-05
8.75842e-05
9.7446e-05
8.86829e-05
8.66017e-05
8.7017e-05
9.04029e-05
8.9658e-05
0.00285262
0.000195943
8.8457e-05
8.4763e-05
8.38702e-05
8.64568e-05
8.80452e-05
8.44244e-05
8.81517e-05
8.63765e-05
8.14004e-05
8.47501e-05
8.84088e-05
8.98718e-05
8.9244e-05
8.72976e-05
8.83083e-05
8.62555e-05
8.60957e-05
8.6716e-05
8.22598e-05
8.58872e-05
0.000121972
8.78146e-05
8.74158e-05
8.56977e-05
8.75222e-05
8.38407e-05
8.68621e-05
8.96037e-05
8.62682e-05
8.75874e-05
8.59264e-05
8.76633e-05
8.25189e-05
8.71274e-05
8.84181e-05
8.79344e-05
8.76337e-05
8.78322e-05
8.47465e-05
8.1369e-05
8.75148e-05
8.88731e-05
8.50924e-05
8.62094e-05
8.75812e-05
8.74222e-05
0.000102753
8.868e-05
8.3943e-05
8.80665e-05
8.20915e-05
0.00180491
8.52689e-05
8.08947e-05
9.43981e-05
8.33967e-05
8.53929e-05
8.85654e-05
8.60274e-05
8.32471e-05
8.569e-05
8.6129e-05
8.61992e-05
8.54905e-05
8.83316e-05
8.62601e-05
8.2624e-05
8.46497e-05
8.7054e-05
8.78568e-05
8.69499e-05
8.33725e-05
8.28114e-05
8.29749e-05
8.63636e-05
8.65251e-05
0.00050571
8.54987e-05
9.00422e-05
8.50591e-05
8.59084e-05
8.53922e-05
8.74011e-05
7.98287e-05
8.54785e-05
8.32561e-05
8.87299e-05
8.5916e-05
8.81423e-05
8.60501e-05
8.75946e-05
8.84521e-05
0.000108494
8.66349e-05
8.3399e-05
0.0891823
8.24612e-05
8.5224e-05
8.6322e-05
8.55615e-05
8.72947e-05
8.56581e-05
8.7588e-05
8.50048e-05
8.71653e-05
8.52421e-05
8.62383e-05
8.66565e-05
8.60028e-05
8.57658e-05
8.79564e-05
8.68365e-05
8.57427e-05
8.58469e-05
8.29706e-05
8.78298e-05
8.65959e-05
8.65264e-05
8.8681e-05
8.58796e-05
8.49407e-05
8.77026e-05
8.5059e-05
8.7615e-05
8.50114e-05
8.94496e-05
0.000229921
8.61525e-05
0.00013276
8.63348e-05
8.99085e-05
0.000147845
8.84901e-05
8.68957e-05
8.46909e-05
8.68407e-05
8.92638e-05
8.85337e-05
8.84893e-05
0.0011432
8.7103e-05
8.72261e-05
8.62986e-05
8.55344e-05
8.5252e-05
8.73363e-05
9.78441e-05
8.77579e-05
8.41025e-05
8.75391e-05
8.60829e-05
8.29005e-05
8.59991e-05
8.73852e-05
8.65139e-05
8.68129e-05
9.47052e-05
8.79213e-05
8.09443e-05
7.89217e-05
7.98793e-05
8.52103e-05
8.12883e-05
0.00010591
7.94377e-05
8.23887e-05
8.25211e-05
8.35629e-05
8.63755e-05
8.57259e-05
8.85683e-05
0.000122657
8.77856e-05
8.47761e-05
0.000248591
8.65783e-05
8.60014e-05
8.82637e-05
8.88743e-05
8.88345e-05
9.30971e-05
8.83279e-05
8.78189e-05
9.37928e-05
8.84523e-05
8.72671e-05
7.84211e-05
8.73814e-05
8.57769e-05
8.62768e-05
8.73941e-05
8.55795e-05
8.69707e-05
8.68817e-05
8.69792e-05
8.44801e-05
8.66755e-05
8.66742e-05
8.7133e-05
8.76897e-05
8.50995e-05
8.91245e-05
8.70787e-05
8.8028e-05
9.02259e-05
8.90756e-05
8.61505e-05
8.86627e-05
8.84867e-05
0.000127833
8.32615e-05
8.69603e-05
8.81095e-05
0.000327696
0.000425791
8.89815e-05
8.39072e-05
8.66541e-05
8.68085e-05
8.712e-05
8.96305e-05
8.568e-05
8.77348e-05
8.73681e-05
8.88393e-05
0.000114703
8.75877e-05
8.47033e-05
8.48825e-05
8.7723e-05
8.67692e-05
8.67482e-05
8.92198e-05
8.50804e-05
8.58921e-05
8.55497e-05
8.68479e-05
8.78584e-05
8.72988e-05
8.84291e-05
8.83186e-05
8.91577e-05
8.56162e-05
9.54496e-05
0.000132047
8.55793e-05
8.77936e-05
8.44002e-05
0.000172217
0.000102303
8.65561e-05
8.73711e-05
8.85511e-05
0.000252043
8.69189e-05
8.61893e-05
8.41278e-05
9.60615e-05
8.81081e-05
8.68471e-05
9.00499e-05
8.50773e-05
8.90411e-05
8.77195e-05
8.55909e-05
8.64182e-05
8.61072e-05
8.55669e-05
8.75621e-05
8.53756e-05
8.81667e-05
8.53231e-05
8.54081e-05
8.68595e-05
8.77158e-05
8.59998e-05
8.48017e-05
8.60628e-05
8.77496e-05
8.61052e-05
8.42854e-05
8.90219e-05
8.99239e-05
8.94031e-05
8.56291e-05
8.31404e-05
8.71776e-05
8.69872e-05
8.41203e-05
0.00211492
8.54371e-05
8.96101e-05
8.7047e-05
8.81122e-05
8.73062e-05
7.69605e-05
8.55813e-05
8.41702e-05
8.4811e-05
8.82323e-05
8.38175e-05
8.13007e-05
8.69171e-05
8.54531e-05
8.12443e-05
8.43559e-05
8.74186e-05
8.74779e-05
8.64241e-05
8.2024e-05
8.66993e-05
8.8386e-05
8.54455e-05
8.68633e-05
8.58976e-05
8.71584e-05
8.57441e-05
8.37099e-05
8.53418e-05
8.81273e-05
8.77426e-05
8.38451e-05
8.5535e-05
8.54624e-05
8.90532e-05
8.57518e-05
8.51398e-05
0.0803555
0.000423193
0.000227033
0.0270304
8.47561e-05
8.74124e-05
8.60731e-05
8.56156e-05
8.57121e-05
8.34647e-05
8.59726e-05
8.67576e-05
8.35224e-05
8.52358e-05
8.84295e-05
8.98561e-05
8.61568e-05
8.8391e-05
0.000142205
8.8927e-05
8.73128e-05
8.60089e-05
8.59387e-05
8.54913e-05
8.72365e-05
8.64722e-05
8.59537e-05
8.29661e-05
8.72425e-05
8.60097e-05
8.87114e-05
8.76594e-05
8.77113e-05
8.7179e-05
8.7121e-05
8.57665e-05
8.6117e-05
8.55149e-05
8.35491e-05
8.65037e-05
8.64011e-05
8.61258e-05
8.63584e-05
8.78698e-05
8.79673e-05
8.65733e-05
8.15878e-05
8.7357e-05
8.50998e-05
8.66697e-05
8.6624e-05
8.10762e-05
8.6992e-05
8.61327e-05
8.58394e-05
8.60176e-05
8.61361e-05
8.60984e-05
8.60097e-05
8.61926e-05
8.66866e-05
8.87321e-05
8.76044e-05
8.86357e-05
8.71116e-05
9.30266e-05
8.72971e-05
8.92184e-05
8.85956e-05
8.72312e-05
9.84423e-05
8.54792e-05
8.76142e-05
8.80536e-05
9.03106e-05
8.76262e-05
8.49843e-05
9.29353e-05
8.63375e-05
8.6427e-05
8.84611e-05
8.40919e-05
8.67929e-05
8.37961e-05
8.65568e-05
8.54946e-05
8.33882e-05
8.70757e-05
8.56478e-05
8.67708e-05
8.74275e-05
8.49034e-05
8.37844e-05
8.61387e-05
8.46667e-05
8.44214e-05
8.35044e-05
8.78749e-05
8.6904e-05
8.58874e-05
8.68116e-05
8.23146e-05
8.51553e-05
8.11227e-05
8.61518e-05
8.68237e-05
8.59527e-05
8.49155e-05
0.0220839
0.000734416
8.78131e-05
8.4086e-05
8.66952e-05
8.47127e-05
9.95405e-05
8.90154e-05
8.3646e-05
8.50177e-05
8.70308e-05
8.1486e-05
8.13971e-05
8.37164e-05
8.71911e-05
8.65802e-05
8.69197e-05
8.54113e-05
8.68772e-05
8.57768e-05
8.25624e-05
8.71816e-05
8.3009e-05
8.66596e-05
8.79096e-05
8.5299e-05
8.85264e-05
8.62639e-05
8.59082e-05
8.59916e-05
8.16887e-05
8.83929e-05
8.63781e-05
8.30347e-05
8.77947e-05
8.63671e-05
8.32018e-05
8.31547e-05
8.82997e-05
8.15744e-05
8.6189e-05
8.5075e-05
8.55395e-05
8.93143e-05
8.70597e-05
8.81433e-05
7.91912e-05
8.76853e-05
8.49945e-05
8.80299e-05
9.09079e-05
8.67318e-05
8.28891e-05
8.68616e-05
8.64429e-05
8.54308e-05
8.91648e-05
8.71756e-05
8.64908e-05
8.62742e-05
8.76049e-05
8.44476e-05
8.32389e-05
8.84307e-05
8.69894e-05
8.65093e-05
8.70445e-05
8.93916e-05
8.2827e-05
8.59339e-05
8.54393e-05
8.69665e-05
8.14548e-05
8.97092e-05
8.67735e-05
8.74929e-05
8.77049e-05
8.66169e-05
8.01429e-05
8.41408e-05
8.75231e-05
8.78179e-05
8.87147e-05
8.22629e-05
8.75275e-05
9.38089e-05
0.000105514
8.39944e-05
8.65075e-05
8.58431e-05
9.29229e-05
8.72413e-05
8.5526e-05
8.29146e-05
8.52997e-05
8.61609e-05
8.55332e-05
8.82513e-05
9.48225e-05
8.42467e-05
8.51694e-05
8.67539e-05
8.67088e-05
9.74543e-05
8.61007e-05
8.6266e-05
8.67277e-05
8.57967e-05
8.69898e-05
8.55567e-05
8.77501e-05
8.70333e-05
8.17278e-05
8.28784e-05
8.41653e-05
8.63071e-05
8.56857e-05
8.4554e-05
8.73946e-05
8.50777e-05
8.76264e-05
8.21949e-05
8.7377e-05
8.52934e-05
8.71619e-05
8.72908e-05
8.54972e-05
8.54139e-05
8.88902e-05
8.52104e-05
8.9158e-05
8.63921e-05
8.12077e-05
8.73872e-05
8.80534e-05
8.69217e-05
8.50765e-05
8.58782e-05
8.23709e-05
8.78589e-05
0.000112139
8.29535e-05
8.63084e-05
8.44167e-05
8.17448e-05
8.57551e-05
8.59793e-05
8.29623e-05
8.46738e-05
8.2077e-05
8.12578e-05
8.13792e-05
8.44449e-05
8.60418e-05
8.71256e-05
8.66464e-05
8.37611e-05
8.66724e-05
8.55863e-05
8.64539e-05
8.96922e-05
8.83974e-05
8.72453e-05
8.67963e-05
8.51846e-05
8.47562e-05
8.69868e-05
9.3521e-05
8.90726e-05
8.80974e-05
9.03566e-05
8.54427e-05
8.65247e-05
0.000114667
8.62291e-05
8.62208e-05
8.68999e-05
8.08859e-05
8.57309e-05
8.72975e-05
8.67351e-05
8.71656e-05
8.56503e-05
8.74889e-05
8.41464e-05
8.53079e-05
8.69668e-05
8.42281e-05
8.63623e-05
8.44228e-05
8.84134e-05
8.51846e-05
8.59792e-05
8.74197e-05
8.75806e-05
8.64887e-05
0.000367682
8.5184e-05
8.6509e-05
8.54087e-05
8.84923e-05
8.26603e-05
8.26582e-05
8.68348e-05
9.45947e-05
8.25977e-05
8.66318e-05
8.7979e-05
8.84948e-05
8.29088e-05
8.90454e-05
0.000148601
8.77814e-05
8.60236e-05
8.50618e-05
8.71398e-05
8.48813e-05
8.50253e-05
8.78535e-05
8.62493e-05
8.88944e-05
8.65363e-05
8.78122e-05
8.64984e-05
8.78732e-05
8.61107e-05
8.59328e-05
8.7646e-05
9.2478e-05
8.61141e-05
8.64923e-05
9.15866e-05
8.66004e-05
8.63651e-05
8.54462e-05
8.05161e-05
8.37844e-05
8.81873e-05
8.5904e-05
9.44116e-05
8.79273e-05
8.64953e-05
9.57454e-05
8.48256e-05
8.77624e-05
8.52814e-05
8.81696e-05
0.000102562
8.67674e-05
0.000115517
8.62003e-05
8.18262e-05
8.50472e-05
8.64557e-05
8.2188e-05
8.67916e-05
8.63184e-05
8.4558e-05
8.55473e-05
8.778e-05
8.75341e-05
8.94946e-05
8.61668e-05
8.89586e-05
7.76121e-05
8.2017e-05
8.69805e-05
8.63599e-05
8.59125e-05
8.65578e-05
8.76733e-05
8.5776e-05
8.18851e-05
8.73439e-05
8.88874e-05
8.74617e-05
8.86725e-05
8.6203e-05
8.70049e-05
8.68274e-05
8.75141e-05
8.72295e-05
8.97427e-05
8.74796e-05
8.70616e-05
8.72343e-05
8.67251e-05
8.70097e-05
8.55885e-05
8.66626e-05
8.72459e-05
8.63095e-05
8.09985e-05
8.30359e-05
8.5551e-05
8.70517e-05
8.56487e-05
8.66131e-05
8.76909e-05
0.00842777
7.97032e-05
8.51765e-05
8.71026e-05
8.34513e-05
8.55123e-05
0.0183144
8.55288e-05
8.62886e-05
8.8905e-05
8.18661e-05
8.48521e-05
8.14981e-05
8.49516e-05
8.80943e-05
8.78196e-05
8.4768e-05
8.36657e-05
8.604e-05
8.90361e-05
8.77237e-05
8.6931e-05
8.92919e-05
8.4167e-05
8.6906e-05
0.0114699
8.17621e-05
8.75933e-05
8.62155e-05
8.91423e-05
8.40759e-05
8.5984e-05
8.32509e-05
0.00583801
8.76079e-05
8.69398e-05
8.90607e-05
8.57249e-05
8.5858e-05
8.68254e-05
8.76816e-05
8.63624e-05
8.34404e-05
8.71299e-05
8.57408e-05
8.57866e-05
8.59997e-05
8.67198e-05
8.67523e-05
8.53798e-05
8.37232e-05
8.70249e-05
8.39492e-05
8.77202e-05
8.88149e-05
8.86062e-05
8.66378e-05
8.72119e-05
0.000100201
8.85656e-05
8.84901e-05
8.65862e-05
8.86664e-05
8.35466e-05
8.58732e-05
8.68526e-05
8.55098e-05
8.53369e-05
8.65759e-05
8.50086e-05
8.56403e-05
8.55864e-05
8.33269e-05
8.59258e-05
8.92978e-05
8.30666e-05
8.563e-05
8.48912e-05
8.63432e-05
8.78496e-05
8.7917e-05
8.6959e-05
8.53759e-05
8.66192e-05
8.54664e-05
8.50151e-05
8.57205e-05
8.52934e-05
8.49061e-05
8.65254e-05
8.72666e-05
8.57603e-05
8.46532e-05
8.56355e-05
8.59612e-05
8.76808e-05
8.44468e-05
8.53503e-05
8.48105e-05
8.50799e-05
8.5883e-05
8.4853e-05
8.5885e-05
8.75557e-05
8.37928e-05
8.55173e-05
8.77601e-05
8.79835e-05
8.55663e-05
8.67038e-05
8.43422e-05
7.92465e-05
8.8383e-05
8.56498e-05
8.62476e-05
8.48563e-05
8.62554e-05
8.88703e-05
8.68009e-05
8.81983e-05
8.91261e-05
8.63829e-05
8.57336e-05
8.6678e-05
8.4197e-05
8.57775e-05
8.44013e-05
8.59442e-05
8.30597e-05
8.72767e-05
8.58729e-05
8.57126e-05
8.79469e-05
8.75903e-05
8.39686e-05
8.53066e-05
8.45883e-05
8.70384e-05
8.56338e-05
8.72402e-05
9.04226e-05
8.54802e-05
8.58445e-05
8.63862e-05
8.78221e-05
8.39839e-05
8.57117e-05
8.75421e-05
8.54466e-05
8.63625e-05
8.65511e-05
8.68545e-05
8.31345e-05
8.59596e-05
8.88134e-05
8.6152e-05
8.73726e-05
8.50777e-05
8.61676e-05
8.40164e-05
8.66324e-05
8.56111e-05
8.69306e-05
8.55256e-05
8.35687e-05
8.56588e-05
8.65615e-05
8.11334e-05
8.50239e-05
8.5521e-05
8.54575e-05
8.41858e-05
8.80163e-05
8.59997e-05
8.66753e-05
8.62909e-05
8.52571e-05
8.85552e-05
8.51954e-05
8.52668e-05
8.43875e-05
8.6855e-05
8.22679e-05
8.86504e-05
8.53365e-05
8.69614e-05
8.3311e-05
8.68533e-05
9.58699e-05
8.47119e-05
8.78969e-05
8.62065e-05
8.65346e-05
8.68236e-05
8.35488e-05
8.44821e-05
8.90676e-05
8.4791e-05
8.31648e-05
8.54131e-05
8.68941e-05
8.65499e-05
8.62758e-05
8.67677e-05
8.66443e-05
8.64577e-05
8.54616e-05
9.12195e-05
8.64563e-05
8.82928e-05
8.5956e-05
8.65445e-05
8.6725e-05
8.53141e-05
8.6981e-05
8.66477e-05
8.72999e-05
8.5693e-05
8.73103e-05
8.62985e-05
8.64709e-05
8.76272e-05
8.5554e-05
8.57196e-05
8.66294e-05
9.00413e-05
8.41242e-05
8.75443e-05
8.81099e-05
8.89787e-05
8.7178e-05
8.80806e-05
8.78082e-05
8.74508e-05
8.601e-05
8.72877e-05
8.11618e-05
8.89865e-05
8.81186e-05
8.72884e-05
8.56395e-05
8.68064e-05
8.82556e-05
8.42587e-05
8.75301e-05
8.03276e-05
8.73803e-05
8.79973e-05
8.32288e-05
8.59129e-05
8.49995e-05
8.90798e-05
8.54824e-05
8.54738e-05
7.73734e-05
7.68256e-05
8.73805e-05
8.81017e-05
7.88675e-05
8.49882e-05
8.43242e-05
8.39871e-05
8.62148e-05
7.71313e-05
8.62495e-05
8.84444e-05
8.82985e-05
8.75065e-05
7.96848e-05
8.5966e-05
8.40102e-05
8.76781e-05
8.50263e-05
8.98375e-05
8.39632e-05
8.83924e-05
8.78497e-05
8.27021e-05
8.5197e-05
8.40334e-05
8.36483e-05
8.83702e-05
8.3427e-05
8.67481e-05
8.87091e-05
8.88126e-05
8.32469e-05
8.45713e-05
8.41486e-05
8.71126e-05
8.16278e-05
8.32552e-05
8.6113e-05
8.66533e-05
8.74165e-05
8.82238e-05
8.6283e-05
8.95062e-05
8.64909e-05
8.72723e-05
8.75686e-05
8.59835e-05
8.6254e-05
8.75491e-05
8.50316e-05
8.59423e-05
8.4876e-05
8.58771e-05
8.65135e-05
8.87746e-05
8.27221e-05
8.73957e-05
8.50831e-05
8.26166e-05
8.57385e-05
8.40074e-05
8.2443e-05
8.63062e-05
8.54939e-05
8.27989e-05
8.58877e-05
8.52435e-05
8.72062e-05
8.27419e-05
8.7547e-05
8.67536e-05
8.32815e-05
8.78115e-05
8.70364e-05
8.56124e-05
8.7841e-05
9.00957e-05
8.34396e-05
8.77427e-05
8.56031e-05
8.54318e-05
8.60392e-05
8.7578e-05
8.56563e-05
8.53192e-05
8.81181e-05
8.71925e-05
8.71127e-05
8.74674e-05
8.68911e-05
8.67665e-05
8.8022e-05
8.44035e-05
8.85409e-05
8.70541e-05
8.48447e-05
8.87861e-05
8.9106e-05
8.71463e-05
8.74999e-05
8.97107e-05
8.80071e-05
9.1484e-05
8.89029e-05
8.4554e-05
8.61414e-05
8.73595e-05
8.69043e-05
8.70841e-05
8.69617e-05
8.78465e-05
8.73355e-05
8.2735e-05
8.82073e-05
0.000106779
9.03534e-05
8.65336e-05
8.55865e-05
9.12743e-05
7.84421e-05
8.55449e-05
8.53104e-05
8.69455e-05
8.26873e-05
8.69458e-05
8.8621e-05
8.57546e-05
8.66747e-05
8.78439e-05
8.76678e-05
8.61413e-05
8.6873e-05
8.68097e-05
8.63149e-05
8.91334e-05
8.91054e-05
9.80566e-05
8.95921e-05
8.82974e-05
8.78979e-05
8.60771e-05
8.76171e-05
9.32326e-05
8.6812e-05
9.36049e-05
8.83723e-05
8.67718e-05
8.4813e-05
8.59042e-05
0.000100491
8.72538e-05
8.69346e-05
7.95709e-05
8.87386e-05
8.73261e-05
8.84724e-05
8.74857e-05
8.71233e-05
8.90794e-05
8.66494e-05
0.00407886
8.68077e-05
8.59993e-05
8.24424e-05
0.0116268
0.0799255
8.24139e-05
8.72096e-05
8.70769e-05
8.15685e-05
8.53354e-05
8.5939e-05
8.54103e-05
8.64836e-05
8.65657e-05
8.62372e-05
8.87303e-05
8.57314e-05
8.74546e-05
8.79444e-05
8.05995e-05
8.86495e-05
8.70595e-05
8.07039e-05
8.47723e-05
8.16369e-05
8.88243e-05
8.57247e-05
8.87609e-05
8.66573e-05
7.95886e-05
8.80667e-05
8.06338e-05
8.7541e-05
8.6171e-05
8.08649e-05
8.7361e-05
8.67628e-05
8.72529e-05
8.18433e-05
8.79183e-05
8.67356e-05
8.10254e-05
8.50704e-05
8.59904e-05
8.17713e-05
8.08694e-05
8.61073e-05
8.87247e-05
8.3759e-05
8.62647e-05
8.06135e-05
8.52807e-05
0.000317851
8.80267e-05
8.28651e-05
8.784e-05
8.40745e-05
8.16848e-05
8.80919e-05
8.64449e-05
8.77432e-05
8.08253e-05
8.73375e-05
8.7398e-05
8.69911e-05
8.80569e-05
8.6777e-05
8.81732e-05
8.08385e-05
8.60076e-05
8.88236e-05
9.15336e-05
8.13995e-05
8.64696e-05
8.60018e-05
8.60102e-05
8.7788e-05
0.000716187
9.40401e-05
9.34296e-05
8.44425e-05
8.66084e-05
8.10597e-05
0.0011868
0.000897424
8.65668e-05
0.00246159
8.64538e-05
8.11597e-05
8.2324e-05
8.62463e-05
8.7223e-05
8.71537e-05
8.68896e-05
8.22651e-05
8.8051e-05
8.71344e-05
8.78226e-05
8.59399e-05
8.61209e-05
8.91184e-05
8.90922e-05
8.75975e-05
8.71372e-05
9.87154e-05
8.85047e-05
8.7666e-05
8.80446e-05
8.77259e-05
8.09132e-05
8.04329e-05
8.78565e-05
8.64195e-05
8.55474e-05
8.67202e-05
8.44767e-05
8.61556e-05
8.57666e-05
8.27711e-05
8.30411e-05
8.46825e-05
8.26381e-05
8.65885e-05
8.58022e-05
8.66575e-05
8.29593e-05
8.61628e-05
8.69172e-05
8.56064e-05
8.69746e-05
8.71484e-05
8.62563e-05
8.16826e-05
8.76179e-05
8.67307e-05
8.54006e-05
8.87644e-05
8.10232e-05
8.63623e-05
8.72195e-05
8.68209e-05
8.75117e-05
8.69155e-05
8.59367e-05
8.58414e-05
8.26992e-05
8.58408e-05
8.80167e-05
8.78476e-05
8.38341e-05
8.22395e-05
8.61075e-05
9.18778e-05
8.42086e-05
8.76818e-05
8.85631e-05
8.48458e-05
8.88872e-05
8.68643e-05
8.70223e-05
8.71704e-05
8.91613e-05
8.85549e-05
8.46871e-05
0.000187915
8.75933e-05
8.5061e-05
9.63085e-05
8.78235e-05
8.79783e-05
8.89732e-05
8.52889e-05
8.69542e-05
8.80285e-05
8.58632e-05
8.62171e-05
8.66082e-05
0.00017395
8.75795e-05
9.15636e-05
8.36066e-05
8.8513e-05
8.7584e-05
8.87942e-05
8.21102e-05
8.64066e-05
8.97138e-05
8.61819e-05
8.26119e-05
8.63501e-05
8.59793e-05
8.6271e-05
8.18468e-05
8.43511e-05
8.95832e-05
8.10866e-05
8.71283e-05
8.77374e-05
8.60419e-05
8.93364e-05
8.24652e-05
8.59445e-05
8.73331e-05
8.71312e-05