/*--------------------------------*- C++ -*----------------------------------*\
| =========                 |                                                 |
| \\      /  F ield         | OpenFOAM: The Open Source CFD Toolbox           |
|  \\    /   O peration     | Version:  v2012                                 |
|   \\  /    A nd           | Website:  www.openfoam.com                      |
|    \\/     M anipulation  |                                                 |
\*---------------------------------------------------------------------------*/
FoamFile
{
    version     2.0;
    format      ascii;
    class       volScalarField;
    location    "1.5";
    object      nut;
}
// * * * * * * * * * * * * * * * * * * * * * * * * * * * * * * * * * * * * * //

dimensions      [0 2 -1 0 0 0 0];


internalField   nonuniform List<scalar> 
108993
(
9.55762e-05
9.06854e-05
7.15148e-05
9.9394e-05
9.94644e-05
5.51982e-05
8.65854e-05
7.95019e-05
0.00012073
9.16408e-05
0.00010425
0.000103416
8.3588e-05
8.30437e-05
8.81238e-05
7.40594e-05
7.77599e-05
8.90551e-05
8.4674e-05
8.92245e-05
7.36598e-05
0.000101551
7.97086e-05
9.8487e-05
9.85119e-05
8.92197e-05
0.000357202
9.52363e-05
0.000105958
6.42256e-05
0.00209987
0.000102353
0.000363236
0.000100765
8.78853e-05
9.94e-05
0.000217254
9.9041e-05
8.04667e-05
8.79966e-05
0.000111473
0.000105778
9.08087e-05
0.000135715
8.88041e-05
6.56031e-05
0.000344005
8.72495e-05
0.000114353
9.71568e-05
0.000108447
0.000109859
9.26541e-05
0.000107181
0.000101729
0.000104932
0.000129142
9.30094e-05
7.88479e-05
0.000106873
9.50508e-05
9.71786e-05
9.40612e-05
8.39305e-05
9.52857e-05
0.00010643
8.78055e-05
0.000103145
0.000110657
9.77917e-05
9.22462e-05
8.92731e-05
9.82493e-05
9.5612e-05
8.58474e-05
0.00329781
7.9637e-05
0.00011333
0.000125159
9.57233e-05
9.03063e-05
8.5565e-05
8.38223e-05
8.32061e-05
0.000106107
8.89855e-05
0.000106406
8.62383e-05
9.11087e-05
0.000104762
9.29496e-05
0.00220423
0.000103474
7.63877e-05
9.99642e-05
9.77509e-05
0.00123473
6.99132e-05
0.00172716
0.000101059
0.000101702
0.000117626
0.000110572
0.000106028
7.50798e-05
0.000104701
0.000106061
0.000114417
0.000106425
0.000106672
8.28499e-05
9.23932e-05
9.07993e-05
9.61621e-05
9.80351e-05
8.34116e-05
8.49727e-05
7.94394e-05
0.000110485
0.00305541
9.33003e-05
9.14249e-05
8.91167e-05
6.49897e-05
8.83772e-05
9.46321e-05
9.81337e-05
8.60192e-05
9.02635e-05
0.000114599
8.69127e-05
0.000107795
0.000108536
7.92783e-05
9.45518e-05
8.03981e-05
9.18019e-05
8.51606e-05
8.37093e-05
9.0315e-05
8.35479e-05
0.000148756
9.04824e-05
9.3807e-05
0.000104753
9.7059e-05
7.94321e-05
7.82665e-05
9.08855e-05
9.22699e-05
9.29049e-05
7.82171e-05
7.77839e-05
0.000101031
9.70136e-05
9.21652e-05
0.000112627
0.000125357
0.000273452
9.46694e-05
0.000102579
0.000651426
0.00173049
8.89326e-05
9.09263e-05
0.000100851
9.15552e-05
7.92979e-05
7.82496e-05
0.000109326
0.000101597
0.000100585
0.000100763
8.4444e-05
9.19606e-05
8.95637e-05
8.52586e-05
8.48542e-05
0.000102613
8.34329e-05
8.56122e-05
8.04229e-05
0.000103278
3.17646e-05
0.000110946
9.73052e-05
0.000105578
9.69151e-05
9.70589e-05
3.51496e-05
9.70279e-05
0.000128886
8.4845e-05
9.56937e-05
0.000103099
9.1683e-05
0.000107824
9.83517e-05
0.000105181
3.92173e-05
0.000102385
0.000101926
7.27247e-05
8.45831e-05
9.98412e-05
7.1419e-05
9.90537e-05
9.77306e-05
9.22192e-05
7.67418e-05
8.19648e-05
8.98267e-05
8.02958e-05
8.8009e-05
7.65405e-05
6.79991e-05
8.53619e-05
0.000102628
0.000107851
0.000140727
9.47887e-05
8.32618e-05
0.000102585
9.09454e-05
8.54524e-05
7.4667e-05
0.000107929
0.000107072
0.000100916
7.90767e-05
4.96734e-05
9.69764e-05
8.02065e-05
7.94469e-05
9.10277e-05
0.00013011
0.000110731
8.97406e-05
8.96404e-05
0.000121966
0.00023895
0.000103291
6.37205e-05
0.000117034
0.000117696
8.96913e-05
9.53665e-05
9.20495e-05
0.000137599
0.000108912
0.00283473
9.85874e-05
9.43075e-05
0.000101494
0.000105474
0.000137655
0.00010273
9.28165e-05
0.000508195
6.32738e-05
9.84632e-05
8.135e-05
0.000106238
7.90962e-05
2.84678e-05
9.46083e-05
0.000106442
0.000110353
6.29549e-05
9.39837e-05
6.90004e-05
7.63618e-05
9.71754e-05
8.52249e-05
8.91187e-05
8.95986e-05
0.000874938
0.000110334
0.000104726
9.41923e-05
0.000101858
7.51125e-05
6.51692e-05
8.65123e-05
0.00010393
9.60471e-05
7.60078e-05
0.000101235
0.000108414
5.6314e-05
9.2517e-05
9.13632e-05
0.000104503
0.000121629
9.54261e-05
8.07482e-05
0.00465484
0.000102306
8.12813e-05
5.66394e-05
8.19125e-05
7.77622e-05
0.00010239
7.55928e-05
0.00010008
7.8201e-05
7.01677e-05
8.28962e-05
7.33714e-05
0.000104849
0.00010308
0.000103192
8.25178e-05
9.02372e-05
0.000104392
8.37102e-05
6.80752e-05
8.55413e-05
8.92965e-05
0.000114211
9.02614e-05
6.96058e-05
6.95494e-05
6.62148e-05
7.73772e-05
8.88148e-05
8.85476e-05
0.000107335
0.000215164
0.000107399
0.000113812
0.000111246
7.01423e-05
0.000118382
9.07498e-05
8.86514e-05
9.64116e-05
9.96445e-05
9.84145e-05
9.12502e-05
9.38594e-05
9.00582e-05
8.67098e-05
0.00010124
8.72623e-05
9.04213e-05
8.59591e-05
8.52858e-05
8.75088e-05
8.10329e-05
0.000100068
6.7195e-05
6.70904e-05
8.94902e-05
8.82889e-05
9.42269e-05
8.58617e-05
6.23675e-05
8.9133e-05
5.61395e-05
0.000114364
8.5964e-05
7.6338e-05
9.05068e-05
9.64064e-05
0.000102795
0.00010164
9.28177e-05
9.1506e-05
9.98193e-05
7.87e-05
0.000101241
8.26698e-05
9.37274e-05
0.000116256
9.85083e-05
0.000104898
0.000127798
7.69722e-05
0.00010083
7.17208e-05
7.50078e-05
0.000105682
7.99235e-05
9.07475e-05
6.44922e-05
8.70954e-05
7.80737e-05
9.03266e-05
0.000105383
7.49784e-05
6.79094e-05
7.36244e-05
8.24879e-05
7.91099e-05
0.000129818
8.53824e-05
9.61064e-05
8.95944e-05
0.000105606
0.000127543
8.82903e-05
7.79831e-05
9.64952e-05
9.882e-05
6.8807e-05
8.60424e-05
6.08829e-05
8.80356e-05
7.79588e-05
8.7989e-05
8.47994e-05
7.72128e-05
8.40498e-05
9.70368e-05
0.000140313
9.63691e-05
8.67046e-05
5.63895e-05
8.89134e-05
9.29747e-05
9.2246e-05
6.99612e-05
7.33899e-05
0.000102255
6.07995e-05
0.000100264
6.85453e-05
7.86498e-05
6.40285e-05
7.71662e-05
9.2554e-05
8.69344e-05
9.93197e-05
8.84792e-05
9.60477e-05
8.57758e-05
9.92045e-05
0.000104452
0.000178535
9.02271e-05
8.98806e-05
0.000109244
6.47857e-05
9.94071e-05
0.000104731
8.4094e-05
0.000104089
9.09789e-05
7.00209e-05
9.26595e-05
9.49856e-05
0.00010384
0.000121171
0.000113632
9.35832e-05
9.37013e-05
9.00395e-05
0.000112471
8.41371e-05
5.77188e-05
9.27541e-05
6.10291e-05
9.62707e-05
9.30519e-05
7.31373e-05
7.86073e-05
7.43857e-05
6.85806e-05
8.34264e-05
6.65492e-05
0.000100264
0.000207253
8.98669e-05
0.000106588
8.68489e-05
0.000344377
0.000103312
8.38733e-05
0.000101116
8.54084e-05
0.00222819
0.000215689
0.000101346
8.85585e-05
8.31991e-05
8.30611e-05
7.61187e-05
8.75819e-05
0.000105291
9.44212e-05
0.000103666
8.26744e-05
7.97585e-05
9.09174e-05
6.61172e-05
8.35938e-05
0.00010178
7.37618e-05
9.13683e-05
9.0069e-05
0.00127701
0.000111734
9.5182e-05
0.000100786
0.00010029
9.14296e-05
0.000290682
8.36855e-05
9.35114e-05
9.98388e-05
8.71812e-05
0.00510986
0.000107389
9.46995e-05
9.41527e-05
8.08504e-05
9.38058e-05
0.000108703
0.000113051
6.92343e-05
6.77828e-05
9.61794e-05
9.9638e-05
0.000108312
8.85685e-05
8.96361e-05
9.97598e-05
9.0377e-05
0.000106832
7.55736e-05
8.78811e-05
8.22242e-05
8.65765e-05
8.97394e-05
0.00010742
8.7209e-05
9.95139e-05
0.000103718
8.66887e-05
7.57461e-05
9.45533e-05
9.21879e-05
0.000107435
0.000106925
9.13785e-05
7.61181e-05
8.35726e-05
0.000105189
7.67534e-05
8.26841e-05
7.92149e-05
7.85038e-05
0.000113406
0.000104736
7.60695e-05
0.000587245
0.000108738
8.70182e-05
8.01091e-05
9.7311e-05
0.00697398
8.40338e-05
0.000101109
6.61146e-05
8.53342e-05
9.98397e-05
0.000284832
0.000124414
0.000104167
9.99497e-05
7.27443e-05
7.03341e-05
6.95414e-05
9.4231e-05
9.47188e-05
0.000110582
7.20574e-05
7.52101e-05
9.52816e-05
0.000107258
8.73279e-05
0.000108826
0.000118429
0.000100182
8.11433e-05
8.29319e-05
6.97603e-05
0.000105873
6.92475e-05
0.000112362
7.206e-05
8.91823e-05
9.36079e-05
8.04544e-05
8.71243e-05
0.000136567
7.37308e-05
0.000107722
8.95681e-05
9.90739e-05
0.00010707
0.000102595
8.4193e-05
8.16949e-05
6.6982e-05
9.87288e-05
7.1431e-05
9.29597e-05
9.92014e-05
8.70996e-05
9.86243e-05
0.000110066
9.14248e-05
0.00011597
8.82187e-05
0.00010037
7.14874e-05
8.12394e-05
8.51669e-05
0.000111067
9.72332e-05
0.000100092
0.000101286
0.000106037
0.000106309
0.00182716
9.79046e-05
8.32099e-05
9.76698e-05
0.000100979
9.333e-05
9.92815e-05
7.9946e-05
9.05259e-05
8.09858e-05
7.28923e-05
0.000107952
8.82288e-05
0.000101854
8.96034e-05
9.98906e-05
8.88622e-05
8.39701e-05
9.01533e-05
8.53299e-05
9.43829e-05
7.8922e-05
8.57424e-05
9.07027e-05
9.67549e-05
8.03992e-05
8.92531e-05
5.95351e-05
0.000105571
8.57564e-05
7.07964e-05
5.20674e-05
9.07974e-05
5.6319e-05
4.49783e-05
9.56024e-05
7.28593e-05
0.000123707
8.23916e-05
9.63904e-05
7.578e-05
0.000102681
7.69665e-05
8.50452e-05
0.000111418
0.000113456
0.00010764
6.76595e-05
6.20847e-05
0.000111992
8.39155e-05
6.21607e-05
9.59617e-05
0.000105309
8.79841e-05
0.000103007
9.16858e-05
9.77498e-05
6.04239e-05
0.000128146
0.000111106
6.0482e-05
6.23315e-05
9.1429e-05
0.000122786
9.32495e-05
0.000100086
7.7293e-05
9.53525e-05
7.74373e-05
7.7666e-05
8.04695e-05
7.5632e-05
9.20346e-05
9.69873e-05
0.000156487
5.65502e-05
6.03813e-05
0.000117583
6.35441e-05
9.8742e-05
8.28751e-05
0.000105779
8.4117e-05
9.71561e-05
9.99398e-05
9.57977e-05
0.000104445
8.91186e-05
7.4681e-05
8.25272e-05
9.48988e-05
7.18479e-05
0.000102922
0.000104168
9.90183e-05
0.000119538
8.22997e-05
8.3943e-05
9.90521e-05
0.000103058
7.59903e-05
8.09975e-05
0.000100362
9.12471e-05
9.52821e-05
7.61015e-05
8.51242e-05
0.000101096
7.70838e-05
0.000110579
7.86283e-05
9.91524e-05
0.000113829
8.38169e-05
7.21231e-05
9.85163e-05
8.78706e-05
0.000103307
0.000105927
0.000110058
0.000121685
0.000100483
0.000130497
0.000102582
7.04418e-05
8.07205e-05
0.000115831
7.25962e-05
8.34489e-05
7.58767e-05
6.57612e-05
0.000114666
8.54863e-05
9.17112e-05
9.11076e-05
0.000117409
9.2165e-05
6.38621e-05
0.000102772
0.000101627
7.94997e-05
0.000101332
9.93711e-05
8.70319e-05
9.40514e-05
9.93025e-05
0.000102869
8.87605e-05
0.000114324
9.25704e-05
8.62163e-05
6.81786e-05
8.71392e-05
6.37952e-05
8.20151e-05
9.93975e-05
9.1245e-05
9.26478e-05
8.37938e-05
9.45797e-05
7.56711e-05
9.9439e-05
6.39209e-05
9.81021e-05
8.09522e-05
9.56834e-05
9.20947e-05
0.000106439
0.00011809
8.4651e-05
0.000104804
6.87566e-05
0.000103787
8.39205e-05
8.71317e-05
0.000104617
8.9275e-05
9.95026e-05
0.00519341
9.93581e-05
9.08607e-05
8.12833e-05
8.52278e-05
8.84999e-05
9.6254e-05
9.70643e-05
7.22524e-05
7.82085e-05
8.81967e-05
7.42467e-05
9.42056e-05
8.95595e-05
7.59705e-05
8.22732e-05
7.53659e-05
9.32718e-05
9.97566e-05
9.18458e-05
8.33097e-05
7.28524e-05
7.97966e-05
7.78908e-05
0.000114603
9.28251e-05
9.9728e-05
9.57586e-05
0.000118345
8.40313e-05
7.30762e-05
8.95378e-05
7.36697e-05
0.000112804
9.13863e-05
7.69971e-05
0.000107733
8.7771e-05
0.000113338
9.54373e-05
9.55943e-05
9.30834e-05
0.00010326
5.06671e-05
9.63357e-05
5.57818e-05
9.59689e-05
5.25101e-05
0.00010064
9.63123e-05
5.78463e-05
8.89149e-05
9.54269e-05
0.000119651
5.9006e-05
6.60685e-05
8.78351e-05
9.33126e-05
6.28204e-05
8.8629e-05
0.000102648
9.33475e-05
6.88572e-05
0.000104243
8.33141e-05
8.10781e-05
8.82735e-05
8.1237e-05
6.11318e-05
8.99705e-05
8.38711e-05
0.000102595
7.09e-05
8.79745e-05
7.21446e-05
5.19568e-05
6.41979e-05
8.03105e-05
9.51781e-05
8.53591e-05
6.50464e-05
9.04074e-05
7.06911e-05
8.69768e-05
8.84249e-05
9.28923e-05
0.000120104
7.29642e-05
8.5887e-05
8.89292e-05
7.89184e-05
8.91272e-05
9.75767e-05
8.03936e-05
0.00011875
9.23894e-05
8.83829e-05
8.69829e-05
6.40658e-05
0.000104857
9.54479e-05
7.24692e-05
8.20929e-05
7.36482e-05
0.000105038
9.39955e-05
9.71956e-05
0.000123803
0.000108055
8.00289e-05
7.86087e-05
7.8915e-05
9.79635e-05
0.00011062
8.52071e-05
7.58409e-05
0.000104148
8.79078e-05
0.000106899
0.000123404
0.000106543
7.5583e-05
0.000116911
9.32562e-05
6.164e-05
7.96852e-05
7.54828e-05
7.92875e-05
0.000102196
0.000121763
8.26169e-05
8.90388e-05
8.09504e-05
0.000101073
6.04687e-05
7.69071e-05
8.63929e-05
8.82718e-05
8.76754e-05
9.52733e-05
7.75136e-05
6.95729e-05
7.91149e-05
0.00010689
9.09742e-05
9.66761e-05
0.000100243
7.90383e-05
9.73199e-05
8.79608e-05
9.51138e-05
8.59881e-05
8.94039e-05
6.69721e-05
9.93266e-05
8.3469e-05
8.42091e-05
8.20466e-05
0.000107184
6.62058e-05
8.42398e-05
0.000102938
9.6943e-05
9.08209e-05
8.90798e-05
6.93692e-05
9.34328e-05
7.10314e-05
0.00155038
6.98396e-05
7.46694e-05
0.00118272
0.000100176
0.000112989
7.37079e-05
8.46553e-05
8.30915e-05
8.63834e-05
7.39326e-05
8.85369e-05
9.7749e-05
9.72224e-05
8.68221e-05
0.000105899
9.18373e-05
7.79217e-05
0.00010465
9.5144e-05
7.70181e-05
8.41361e-05
7.29228e-05
8.64731e-05
7.12501e-05
9.87776e-05
7.39711e-05
8.78178e-05
7.87239e-05
8.92352e-05
8.2636e-05
9.53255e-05
0.000124685
9.07891e-05
8.31965e-05
7.56005e-05
8.44828e-05
9.31103e-05
9.31101e-05
0.000103787
5.29149e-05
9.6383e-05
9.66985e-05
8.49933e-05
8.47308e-05
9.53281e-05
6.87926e-05
7.23661e-05
8.7705e-05
0.00127409
9.21469e-05
0.000104127
0.000106169
0.000118457
9.11134e-05
0.000112135
8.767e-05
0.000107829
0.000103768
0.000101639
0.000103308
0.000110829
0.000134579
0.000100534
0.00015369
0.00613062
8.85303e-05
7.9034e-05
9.58173e-05
9.70137e-05
0.000106159
9.52999e-05
0.000142453
7.75203e-05
8.57585e-05
9.07352e-05
8.6228e-05
9.2312e-05
8.8193e-05
0.000100604
9.33182e-05
6.48892e-05
9.57226e-05
9.20376e-05
8.46894e-05
6.79867e-05
0.000106868
7.39399e-05
8.81942e-05
9.25584e-05
0.000111193
0.000117207
8.72833e-05
8.662e-05
7.79231e-05
8.1422e-05
8.75013e-05
0.000112259
8.09264e-05
0.000127684
0.000107112
0.000116022
7.29623e-05
6.18011e-05
9.0082e-05
7.61672e-05
8.74523e-05
9.35099e-05
8.05517e-05
7.82568e-05
9.79125e-05
0.000100092
0.00010299
7.67364e-05
0.000100277
9.00344e-05
7.90602e-05
9.14887e-05
0.000104514
0.000101563
6.40538e-05
0.00011818
0.000100426
8.17658e-05
8.84248e-05
9.28982e-05
9.54789e-05
0.000134808
0.000121655
0.000501515
0.000130511
0.000110476
7.82936e-05
7.32845e-05
8.13566e-05
0.000103761
7.74251e-05
0.000106903
8.97771e-05
6.11114e-05
7.33752e-05
0.000109329
0.000126856
7.39024e-05
9.75512e-05
0.000108731
8.88883e-05
8.7345e-05
9.25307e-05
6.44179e-05
8.59568e-05
7.18753e-05
0.000101974
9.95583e-05
8.44823e-05
0.000100398
7.29092e-05
9.31059e-05
8.84315e-05
8.99204e-05
0.000100015
8.52198e-05
0.000101689
6.56555e-05
9.60689e-05
0.000109984
0.000103404
0.000101163
0.000102341
7.47221e-05
6.06797e-05
9.89173e-05
0.000114125
8.10057e-05
8.89036e-05
0.000100946
9.71305e-05
0.000110779
0.000112482
7.22744e-05
9.42909e-05
6.4257e-05
0.000414784
8.12775e-05
5.86324e-05
0.000106956
7.09353e-05
8.29921e-05
0.000111561
8.42605e-05
6.99839e-05
8.42808e-05
8.8255e-05
8.87031e-05
8.04525e-05
0.000108387
8.85173e-05
6.64457e-05
7.79289e-05
9.60426e-05
0.000103279
9.45802e-05
7.03754e-05
6.77667e-05
6.86088e-05
8.95935e-05
9.13445e-05
0.000218466
8.28302e-05
0.000114601
7.70453e-05
8.60692e-05
8.32907e-05
9.91528e-05
5.50214e-05
8.39102e-05
7.04491e-05
0.000111791
8.82939e-05
0.000107094
8.7581e-05
0.000100387
9.45953e-05
9.87486e-05
9.1139e-05
7.10581e-05
0.00320781
6.5344e-05
8.15082e-05
9.01368e-05
8.37481e-05
9.80124e-05
8.33073e-05
0.000100774
8.02318e-05
9.67879e-05
8.06335e-05
8.96708e-05
9.23904e-05
8.71778e-05
8.42231e-05
0.000100695
9.3014e-05
8.10593e-05
8.73401e-05
6.7641e-05
9.95143e-05
9.16065e-05
9.25936e-05
0.000108935
8.26401e-05
7.80412e-05
0.000101879
7.87175e-05
0.000100335
7.54084e-05
0.000120308
0.000131792
8.77344e-05
7.58112e-05
8.84386e-05
0.000128493
0.000151905
0.00011034
9.53564e-05
7.72484e-05
9.40465e-05
0.000119166
0.0001112
0.000110651
0.000362716
9.22291e-05
9.86052e-05
8.93878e-05
8.39644e-05
8.15099e-05
9.83706e-05
0.000110419
0.000102782
7.48669e-05
0.000100787
8.75831e-05
6.73403e-05
8.76013e-05
9.67212e-05
8.87119e-05
9.21633e-05
8.68571e-05
0.000103842
5.82714e-05
5.11092e-05
5.41012e-05
8.16767e-05
5.81575e-05
0.000115797
5.2947e-05
6.47102e-05
6.52672e-05
7.18554e-05
8.97776e-05
8.51066e-05
0.000110195
0.000119337
8.39595e-05
7.87523e-05
0.000139753
9.22113e-05
8.75343e-05
0.00010845
0.000109535
0.000113403
8.49584e-05
0.00010716
7.89248e-05
7.6689e-05
9.68134e-05
9.81292e-05
4.16599e-05
8.04679e-05
8.50043e-05
8.95598e-05
9.85249e-05
8.39789e-05
9.53551e-05
9.432e-05
9.50277e-05
7.73991e-05
9.24627e-05
8.41387e-05
9.45682e-05
9.86658e-05
7.6054e-05
0.000115264
9.68547e-05
0.00010527
9.44091e-05
0.000114933
8.84494e-05
8.35492e-05
0.00010497
0.000114859
7.01548e-05
9.53866e-05
0.000103847
0.000172525
0.000202773
0.000111165
7.36293e-05
9.12552e-05
9.43007e-05
9.63656e-05
0.000121668
8.26713e-05
0.000102459
9.93218e-05
9.34763e-05
0.000104154
0.000101811
7.36003e-05
7.96122e-05
0.000102731
9.3421e-05
9.25308e-05
0.000117311
7.92664e-05
8.61385e-05
8.43794e-05
9.34963e-05
0.000103383
9.71925e-05
0.000107751
0.00010735
0.000118728
8.37824e-05
0.000110778
0.000114917
8.365e-05
0.000102241
7.32349e-05
9.43631e-05
8.90802e-05
9.12642e-05
9.88609e-05
0.000111233
0.000168818
9.48382e-05
8.84973e-05
7.36004e-05
8.47389e-05
0.000101989
9.40119e-05
9.17872e-05
8.18571e-05
0.000114418
0.000101599
8.34317e-05
8.96626e-05
8.7871e-05
8.4848e-05
9.70691e-05
8.28266e-05
0.000105408
8.15556e-05
8.34747e-05
9.33886e-05
0.000100889
8.7288e-05
7.81355e-05
8.42183e-05
0.00010258
8.7499e-05
7.60292e-05
0.000115522
0.000107748
0.000102149
8.46433e-05
6.92329e-05
9.69145e-05
9.53131e-05
7.47647e-05
0.00045296
6.90101e-05
0.000122484
9.62635e-05
0.00010627
9.80574e-05
4.54687e-05
8.52608e-05
7.54496e-05
6.85385e-05
0.000107481
7.23794e-05
6.01451e-05
9.44352e-05
8.19991e-05
5.87367e-05
7.62736e-05
9.79652e-05
9.95459e-05
9.11516e-05
6.41236e-05
9.01198e-05
0.000109094
8.31342e-05
9.30516e-05
8.62181e-05
9.64204e-05
8.46604e-05
7.16011e-05
8.26264e-05
0.000106278
0.000100289
6.80831e-05
8.36308e-05
8.24458e-05
0.00011138
8.49141e-05
8.15869e-05
0.00228872
0.000183983
0.000160476
0.00169472
7.84029e-05
8.60512e-05
8.75552e-05
8.41465e-05
8.15828e-05
7.08269e-05
8.70238e-05
9.31451e-05
7.09425e-05
8.21825e-05
0.000107454
4.10862e-05
8.82477e-05
0.000109223
0.000101985
0.000115854
9.87404e-05
8.77044e-05
8.63786e-05
8.33252e-05
9.09075e-05
9.05502e-05
8.443e-05
6.81399e-05
9.76901e-05
8.78986e-05
0.0001119
0.000102273
0.000102067
9.76591e-05
8.9403e-05
8.54129e-05
8.83305e-05
8.38893e-05
7.18123e-05
9.12e-05
8.79623e-05
8.84023e-05
8.99862e-05
0.000102963
0.000104348
9.14214e-05
6.13328e-05
9.70577e-05
8.1033e-05
9.30347e-05
9.14177e-05
5.91345e-05
9.5239e-05
6.28683e-05
8.60465e-05
8.52691e-05
6.10942e-05
8.83271e-05
8.79779e-05
8.3486e-05
9.27805e-05
0.000105741
0.000101372
0.000110533
8.33323e-05
9.34743e-05
9.57566e-05
0.000119073
0.000111383
9.75261e-05
8.69602e-05
8.43473e-05
0.000100313
0.000105765
0.000109727
0.000101922
7.96358e-05
0.000107026
8.95286e-05
8.84241e-05
0.000109717
7.40168e-05
9.35294e-05
7.1584e-05
9.1336e-05
8.1284e-05
7.07103e-05
9.58104e-05
8.44471e-05
9.35867e-05
9.80009e-05
7.92246e-05
7.22825e-05
8.87781e-05
7.83837e-05
7.63983e-05
7.07027e-05
0.000103322
7.37771e-05
8.5993e-05
7.37851e-05
6.51882e-05
8.1041e-05
5.90918e-05
8.81874e-05
9.3588e-05
8.70162e-05
7.98298e-05
0.00186003
0.000280684
0.000103095
7.44684e-05
9.27912e-05
7.74647e-05
0.00011014
0.000117053
6.7476e-05
8.02889e-05
9.47138e-05
6.11126e-05
6.11161e-05
6.75813e-05
9.71203e-05
9.14939e-05
9.45009e-05
8.28489e-05
9.36519e-05
8.4621e-05
6.6696e-05
9.70696e-05
6.80658e-05
9.2458e-05
8.57679e-05
8.21183e-05
0.000110904
8.98909e-05
8.64071e-05
7.68775e-05
6.20044e-05
0.000108448
9.03356e-05
6.85539e-05
0.000103669
9.01399e-05
6.90602e-05
6.92049e-05
6.85472e-05
6.14662e-05
8.85105e-05
8.01683e-05
8.19303e-05
0.000112994
9.59136e-05
0.000106164
4.9048e-05
8.62768e-05
7.81212e-05
0.000105463
8.67094e-05
9.28246e-05
6.60747e-05
9.43596e-05
9.0154e-05
8.20561e-05
0.000118111
9.44341e-05
8.93438e-05
8.93273e-05
0.000100655
7.64276e-05
6.89952e-05
0.00010939
9.45654e-05
9.00245e-05
9.55166e-05
0.000100049
6.77695e-05
8.57728e-05
8.31393e-05
9.62002e-05
6.16232e-05
8.93151e-05
9.40297e-05
0.000100003
0.000102018
9.25796e-05
5.61969e-05
7.45011e-05
0.000100322
0.000101574
0.000112415
6.48265e-05
0.00010138
7.06422e-05
8.82293e-05
7.38162e-05
9.10782e-05
8.56227e-05
7.03508e-05
9.78306e-05
8.40576e-05
6.81503e-05
8.12184e-05
8.8256e-05
8.3588e-05
0.000108316
8.32271e-05
7.51815e-05
7.98483e-05
9.37117e-05
9.19351e-05
8.95774e-05
8.72339e-05
8.94561e-05
9.33638e-05
8.46644e-05
7.42942e-05
8.4605e-05
0.000102166
9.54986e-05
6.27699e-05
6.66566e-05
7.5166e-05
8.97574e-05
8.57164e-05
7.67585e-05
0.000101013
7.84646e-05
0.000102178
6.04366e-05
9.87657e-05
7.47778e-05
9.58219e-05
9.79717e-05
7.64493e-05
8.24906e-05
0.000115322
8.10209e-05
0.00011838
8.98605e-05
6.07985e-05
9.87438e-05
0.000105433
9.30998e-05
7.90609e-05
8.22622e-05
6.60748e-05
0.000101678
7.88536e-05
6.73805e-05
8.90333e-05
7.77656e-05
6.25302e-05
8.52272e-05
8.74104e-05
6.84065e-05
7.69237e-05
5.54383e-05
6.06294e-05
6.09767e-05
7.36412e-05
8.67746e-05
9.31351e-05
9.28101e-05
7.21963e-05
9.08105e-05
8.36963e-05
8.97545e-05
0.000116564
0.000108455
9.70745e-05
9.30413e-05
8.11685e-05
7.2823e-05
9.5049e-05
9.16359e-05
0.000111582
0.000106376
8.96109e-05
8.20938e-05
9.12497e-05
7.80238e-05
8.85698e-05
8.91342e-05
9.44118e-05
5.94231e-05
8.5402e-05
8.06891e-05
9.28929e-05
9.62727e-05
8.51315e-05
8.36548e-05
7.46402e-05
8.15879e-05
8.9476e-05
7.54046e-05
8.9735e-05
7.6372e-05
0.000109378
7.80937e-05
8.71526e-05
9.93804e-05
0.000100385
9.11863e-05
0.000182348
7.84902e-05
9.12529e-05
8.24672e-05
8.31106e-05
6.6148e-05
6.68407e-05
9.06898e-05
6.57816e-05
6.51792e-05
9.27511e-05
0.000104622
0.000104754
6.84895e-05
0.00011444
0.000119213
0.000102435
8.66515e-05
8.04478e-05
9.6543e-05
7.91483e-05
8.14386e-05
0.00010309
8.88921e-05
0.000114528
9.09199e-05
9.42249e-05
8.5454e-05
0.000102521
8.80166e-05
8.45843e-05
0.000100407
9.32201e-05
8.82734e-05
8.97076e-05
9.06317e-05
8.9999e-05
8.92859e-05
8.1903e-05
5.73631e-05
7.23015e-05
0.000106098
7.98956e-05
9.91516e-05
0.000104618
8.53115e-05
9.19397e-05
7.90007e-05
9.8762e-05
8.209e-05
9.37723e-05
0.00010646
9.25821e-05
0.000104651
8.84116e-05
6.32018e-05
7.83161e-05
9.15575e-05
6.36884e-05
9.33465e-05
8.9282e-05
7.19654e-05
7.90741e-05
0.000102163
0.000100342
0.000123458
8.74591e-05
0.000115822
4.64624e-05
6.39525e-05
9.57563e-05
9.01146e-05
8.28629e-05
9.16044e-05
0.000102108
8.56725e-05
6.21415e-05
9.92189e-05
0.000115974
9.97478e-05
0.000112822
8.82088e-05
9.50644e-05
9.18155e-05
0.000100675
9.73349e-05
9.67183e-05
0.000100124
9.6275e-05
9.75524e-05
8.75544e-05
9.54618e-05
8.34875e-05
9.32112e-05
9.78741e-05
8.89266e-05
5.83099e-05
6.89343e-05
8.41667e-05
9.61213e-05
8.47757e-05
9.26835e-05
8.92789e-05
0.000968434
5.44827e-05
8.11443e-05
9.6267e-05
7.07251e-05
8.36018e-05
0.00165087
7.78053e-05
8.91775e-05
0.000115536
6.27669e-05
7.61141e-05
6.12329e-05
7.9833e-05
0.000106474
0.000103003
7.92724e-05
7.15545e-05
8.76173e-05
0.000118367
0.000101695
9.43876e-05
0.000107
7.42013e-05
9.3967e-05
0.00137404
6.22378e-05
9.4854e-05
8.54961e-05
0.000117613
7.39911e-05
8.7432e-05
6.86969e-05
0.000799148
0.000100706
9.42007e-05
0.000117045
8.49341e-05
8.60546e-05
9.3715e-05
0.000102064
8.99064e-05
7.03658e-05
9.63376e-05
8.48193e-05
8.55541e-05
8.06061e-05
9.27446e-05
8.97705e-05
7.96726e-05
7.20497e-05
9.53666e-05
7.28704e-05
0.000100894
0.000112753
0.000110665
9.12073e-05
9.30793e-05
9.60824e-05
0.000110392
9.17151e-05
9.16932e-05
9.16464e-05
7.06881e-05
8.58687e-05
9.40323e-05
8.30863e-05
8.24097e-05
9.24538e-05
7.97232e-05
8.35097e-05
7.92564e-05
7.03779e-05
8.50645e-05
0.000120988
6.86156e-05
8.43102e-05
7.92789e-05
8.8476e-05
0.000102921
0.000103253
9.68762e-05
8.14259e-05
8.93668e-05
8.33323e-05
8.04458e-05
8.55315e-05
8.21659e-05
7.86644e-05
9.09986e-05
9.73977e-05
8.30007e-05
7.80551e-05
7.94235e-05
8.65858e-05
9.94751e-05
7.68797e-05
8.14917e-05
7.80862e-05
8.31768e-05
8.64311e-05
7.54836e-05
8.53619e-05
9.27256e-05
7.13661e-05
8.27642e-05
0.000102277
0.00010195
8.33219e-05
9.25887e-05
7.59092e-05
5.385e-05
0.000110661
7.86748e-05
8.86017e-05
7.98429e-05
8.89423e-05
0.000114418
9.321e-05
0.000107038
0.000115206
9.03923e-05
8.53701e-05
9.27317e-05
7.52594e-05
8.56881e-05
7.67727e-05
7.10957e-05
6.83527e-05
9.91491e-05
8.6183e-05
8.88121e-05
0.00010258
0.000100445
7.18611e-05
8.1694e-05
7.78918e-05
7.20273e-05
8.53019e-05
9.72246e-05
8.37325e-05
8.30514e-05
8.62604e-05
9.02844e-05
9.30023e-05
7.27273e-05
8.48268e-05
9.98936e-05
8.32035e-05
8.97411e-05
9.17644e-05
9.25959e-05
6.86971e-05
8.66884e-05
0.000113823
8.0633e-05
7.20207e-05
8.01485e-05
8.79877e-05
7.44951e-05
9.21232e-05
8.44348e-05
9.50519e-05
8.34973e-05
7.14477e-05
8.48678e-05
9.15744e-05
5.19814e-05
8.03721e-05
8.34409e-05
8.34284e-05
7.4576e-05
0.000104922
8.76362e-05
9.20986e-05
8.98312e-05
8.16927e-05
0.00011093
8.12824e-05
8.17278e-05
7.59894e-05
9.2809e-05
6.52699e-05
0.000111844
8.07136e-05
9.47905e-05
7.05129e-05
9.34194e-05
7.3769e-05
7.73576e-05
0.000102375
8.90801e-05
9.03371e-05
9.36145e-05
7.15543e-05
7.71331e-05
0.00011456
7.67337e-05
6.93474e-05
8.28577e-05
9.48559e-05
9.18813e-05
8.99579e-05
9.34142e-05
9.24377e-05
9.04781e-05
8.4096e-05
9.81675e-05
9.07113e-05
0.000108681
8.69116e-05
9.13335e-05
9.31861e-05
8.22416e-05
9.55462e-05
9.2248e-05
9.68708e-05
8.54468e-05
9.81279e-05
8.96118e-05
9.15597e-05
0.000101662
8.38387e-05
8.55107e-05
9.18136e-05
0.000129393
7.35893e-05
9.68539e-05
0.000106702
0.00011633
9.30033e-05
0.000105822
0.000102419
9.91437e-05
8.69409e-05
9.85163e-05
6.01946e-05
0.000116109
0.000106344
9.85484e-05
8.51889e-05
9.28066e-05
0.00010817
7.30874e-05
0.000100473
5.67474e-05
9.75991e-05
0.000102635
6.94596e-05
8.70646e-05
7.95149e-05
0.00011765
8.29201e-05
8.39725e-05
4.7064e-05
4.54094e-05
9.89706e-05
6.94809e-05
5.14768e-05
7.99136e-05
7.50884e-05
7.0907e-05
8.95472e-05
4.60348e-05
8.848e-05
0.000109745
0.000108953
0.000100151
5.45247e-05
8.7218e-05
7.34403e-05
0.000101251
7.85e-05
0.000126114
7.30391e-05
8.72393e-05
0.00010177
6.69886e-05
8.04852e-05
7.46949e-05
7.22419e-05
8.4229e-05
7.08214e-05
9.2642e-05
0.000112416
0.000114039
6.75116e-05
7.70615e-05
7.44241e-05
9.70191e-05
6.1942e-05
6.98284e-05
8.78431e-05
9.14399e-05
9.90903e-05
0.000106421
8.6438e-05
0.00012259
8.96909e-05
9.75605e-05
0.000100177
8.69051e-05
8.85668e-05
0.000101001
8.10376e-05
8.65723e-05
7.89289e-05
8.65857e-05
9.15371e-05
0.00011228
6.72877e-05
9.97312e-05
8.09127e-05
6.69707e-05
8.57442e-05
6.83883e-05
6.52377e-05
8.92087e-05
8.30246e-05
6.77677e-05
8.56687e-05
8.2848e-05
9.20627e-05
6.65563e-05
9.78627e-05
9.34792e-05
7.0029e-05
0.000102618
9.58392e-05
7.97489e-05
0.000104006
9.67623e-05
7.08528e-05
0.000102371
8.38118e-05
6.87841e-05
8.67931e-05
0.000100188
8.4032e-05
6.87589e-05
0.000103175
9.52839e-05
9.35842e-05
9.89952e-05
9.30378e-05
9.31439e-05
0.000105194
7.65372e-05
0.000111382
9.61566e-05
7.83015e-05
0.000108068
0.000114478
9.67477e-05
9.95073e-05
8.91378e-05
0.000101206
8.57384e-05
0.000100693
7.37337e-05
8.80276e-05
9.46698e-05
9.47582e-05
9.44732e-05
9.52947e-05
0.000102951
9.66168e-05
6.69108e-05
0.000101953
0.000108576
0.000128413
9.08989e-05
8.41702e-05
0.000104336
5.02281e-05
8.3609e-05
8.20223e-05
9.48855e-05
6.68257e-05
9.51655e-05
0.000110746
8.48652e-05
9.29226e-05
0.000103434
5.9736e-05
8.77203e-05
9.28979e-05
9.43299e-05
8.82558e-05
0.000118614
0.000110902
6.19444e-05
0.000123973
0.000106966
5.73791e-05
8.60854e-05
0.000102123
5.65236e-05
9.3409e-05
8.78182e-05
0.000106274
9.49575e-05
7.72975e-05
8.62461e-05
6.08749e-05
9.87579e-05
9.46404e-05
5.44479e-05
0.000112419
9.70752e-05
6.1896e-05
0.000100277
9.53445e-05
0.00011695
9.14079e-05
0.000635837
9.42235e-05
8.72591e-05
6.54474e-05
0.00115117
0.00283059
6.59022e-05
9.78735e-05
9.66155e-05
6.22078e-05
8.24309e-05
8.65149e-05
8.29613e-05
9.16812e-05
9.02725e-05
8.8807e-05
0.00011305
8.52891e-05
9.90374e-05
9.40945e-05
5.77524e-05
0.000112375
9.38541e-05
5.81857e-05
7.88916e-05
6.19843e-05
0.000112689
8.51799e-05
0.000112042
9.23436e-05
5.39315e-05
0.00010563
5.77462e-05
0.000101299
8.79944e-05
5.9006e-05
9.87357e-05
9.35142e-05
9.79355e-05
6.31758e-05
0.000102799
9.27502e-05
5.67448e-05
8.04914e-05
8.77983e-05
6.2504e-05
5.85353e-05
8.7413e-05
0.00011316
7.06414e-05
8.83959e-05
5.61539e-05
8.36021e-05
0.000220735
0.00010521
6.69596e-05
9.87683e-05
7.41103e-05
5.97803e-05
0.000106408
9.07747e-05
0.000102806
5.81686e-05
9.89855e-05
9.8582e-05
9.62094e-05
0.000105994
9.30352e-05
0.000102764
5.59527e-05
8.6966e-05
0.000113748
6.64317e-05
6.08494e-05
9.12978e-05
8.70205e-05
8.51177e-05
0.000102416
0.000393538
5.69023e-05
8.67258e-05
7.58782e-05
9.25199e-05
6.05841e-05
0.00020588
0.000182346
9.10322e-05
0.000313756
9.01486e-05
5.94697e-05
6.17438e-05
8.93992e-05
9.70632e-05
9.70596e-05
9.43584e-05
6.44866e-05
0.000105055
9.70063e-05
0.000102517
8.70844e-05
8.80609e-05
0.000117534
0.00011568
0.000101231
9.66242e-05
7.21005e-05
0.000110835
0.000101988
0.000105705
0.000101994
5.64047e-05
5.5402e-05
8.32011e-05
9.00765e-05
8.32697e-05
9.22433e-05
7.70597e-05
8.90103e-05
8.18807e-05
6.74396e-05
6.87239e-05
8.08027e-05
6.38814e-05
9.15144e-05
8.5649e-05
9.22472e-05
6.80266e-05
8.77121e-05
9.48161e-05
8.41874e-05
9.51104e-05
9.70438e-05
8.90692e-05
6.21874e-05
0.000101643
9.33426e-05
8.27305e-05
0.000113306
5.90509e-05
9.00823e-05
9.72287e-05
9.40741e-05
8.05656e-05
9.45499e-05
8.67669e-05
8.53997e-05
6.72651e-05
8.60864e-05
0.000105121
9.98977e-05
7.32326e-05
6.43845e-05
8.75352e-05
6.34425e-05
7.47586e-05
0.000102971
0.000110596
7.95109e-05
0.000114917
9.33754e-05
9.37107e-05
9.65729e-05
0.000118056
0.000110677
7.73336e-05
9.12036e-05
0.000100596
7.86045e-05
6.54352e-05
0.000102583
0.000104234
0.000116222
8.21747e-05
9.50678e-05
0.000105627
8.65756e-05
8.90293e-05
9.18888e-05
9.041e-05
9.97735e-05
8.25124e-05
7.15665e-05
0.000109516
0.000101198
0.000112982
6.32875e-05
9.20106e-05
0.000124594
8.90346e-05
6.59283e-05
7.61578e-05
7.73377e-05
8.88349e-05
6.34125e-05
7.47684e-05
8.43886e-05
5.97607e-05
9.51445e-05
0.000102034
8.49522e-05
0.000118228