/*--------------------------------*- C++ -*----------------------------------*\
| =========                 |                                                 |
| \\      /  F ield         | OpenFOAM: The Open Source CFD Toolbox           |
|  \\    /   O peration     | Version:  v2012                                 |
|   \\  /    A nd           | Website:  www.openfoam.com                      |
|    \\/     M anipulation  |                                                 |
\*---------------------------------------------------------------------------*/
FoamFile
{
    version     2.0;
    format      ascii;
    class       volScalarField;
    location    "1.5";
    object      p_rgh;
}
// * * * * * * * * * * * * * * * * * * * * * * * * * * * * * * * * * * * * * //

dimensions      [1 -1 -2 0 0 0 0];


internalField   nonuniform List<scalar> 
108993
(
0.843883
0.214929
0.908019
0.701498
0.84821
0.138666
0.248
0.856234
1.68368
0.799036
0.870164
0.873252
0.770245
0.842476
0.874495
0.591642
0.771325
0.848739
0.742525
0.157874
0.903275
0.75046
0.230945
0.909027
0.752403
0.137001
0.919981
0.169141
0.15026
0.977134
2.59828
0.847366
0.966364
0.803767
0.577413
0.898427
0.58838
0.921636
0.18524
0.182523
0.208802
0.890816
0.844846
0.666107
0.472299
0.188962
0.787564
0.250393
0.148274
0.137871
0.68945
0.344583
0.209742
0.568025
0.840297
0.895715
0.748594
0.94798
0.911276
0.930438
0.976933
0.922022
0.956761
0.102009
0.724936
0.141664
0.765809
0.853857
0.840075
0.531897
0.909602
0.826123
0.893254
0.843043
0.160311
4.89128
0.102932
0.765906
0.694382
0.764199
1.00314
0.835548
0.872908
0.89266
0.851493
0.843919
0.8963
0.866686
0.865212
0.798049
0.860907
3.45986
0.870555
0.810098
0.886892
0.836711
2.44521
0.955917
2.84226
0.24211
0.899792
0.827494
0.896014
0.851194
0.942418
0.873062
0.961293
0.359176
0.72804
0.161778
0.361123
0.862227
0.306896
0.321685
0.923351
0.13051
0.868137
0.926902
0.621293
3.3617
0.838904
0.949303
0.0863723
0.886335
0.912416
0.638201
0.212682
0.945066
0.914075
0.770981
0.833208
0.838656
0.998734
0.329997
0.876355
0.897623
0.9657
0.966021
0.983226
0.841952
0.891391
0.137019
0.550192
0.873795
0.813119
0.906024
0.953589
0.146376
0.887555
0.177176
0.181599
0.133984
0.229356
0.1846
0.931273
0.26903
0.885117
0.352465
0.806726
0.39615
0.184382
0.319127
4.96842
0.916129
0.852768
0.306911
0.930271
0.105378
0.104416
0.933082
0.788381
0.901583
0.362856
0.895974
0.11266
0.125411
0.29462
0.106166
1.0035
0.854614
0.789069
0.949637
0.510684
0.890309
0.843133
0.926805
0.562421
0.858917
0.860441
0.889633
0.916012
0.649041
0.911263
0.279101
0.951318
0.902111
0.208603
0.935254
0.940204
0.892322
0.947104
0.285043
0.914202
0.110101
0.286106
0.143068
1.49149
0.121364
1.01687
0.204152
0.349831
0.934831
0.293213
0.0199826
0.211116
0.938269
0.874096
1.53028
0.556356
1.56674
0.0850501
0.173452
0.794125
0.276646
0.0774094
0.107786
0.350823
0.971022
0.365331
0.130911
0.240931
0.915618
0.107123
0.210679
0.862825
1.02752
1.27256
1.02386
0.359363
0.418308
0.289702
1.19022
0.94785
0.25882
0.658904
0.594808
0.0313226
0.100716
0.478602
0.866369
6.7109
0.714893
1.30835
0.936768
0.468667
0.324277
0.465859
0.868904
2.20466
0.138592
0.964893
0.160893
0.677782
0.616662
0.621726
0.141699
0.819804
0.140517
0.138548
1.07553
0.876233
0.898003
0.102274
0.214288
0.139245
0.987739
0.176786
0.0574795
0.888148
0.150055
0.146213
0.196358
0.196329
0.131946
1.41167
0.75236
0.772014
0.133661
0.858293
0.137149
0.836888
0.698578
0.135613
0.682272
0.119338
1.04852
4.17389
0.863042
0.665793
0.948471
0.116146
0.162173
0.944836
0.947485
1.20062
0.237294
0.0400314
0.174588
0.238002
0.0844059
0.927391
0.99699
0.737515
0.913993
0.23623
0.150127
0.102826
0.754385
0.171876
1.15598
0.203043
0.101841
0.187356
0.186602
0.942025
0.267448
0.204721
0.15094
1.87653
0.900048
0.0755671
0.131391
0.308118
1.98697
0.14098
0.923402
0.817423
0.933923
1.00675
1.42214
0.937213
0.113533
0.109028
0.969474
0.880472
0.858858
0.942516
0.967891
0.637758
0.941215
0.83982
0.138419
0.195722
0.119928
0.0480582
0.979006
1.00648
0.163459
0.878517
0.109543
0.775085
0.103671
0.928127
0.891513
0.157073
0.149635
0.912542
1.33318
0.873125
0.22199
0.230562
0.780048
0.907737
0.200812
0.147494
0.172276
0.841707
1.04251
0.158449
0.908952
0.156529
0.160108
0.138597
0.55205
0.860178
0.242485
0.780514
0.240233
0.149425
0.13314
0.160476
0.242571
0.161517
0.831657
0.114378
0.12723
0.21249
0.753067
0.602962
1.59055
0.137422
0.0513759
0.0790449
0.847402
0.0688247
0.242451
0.24202
0.940722
0.897514
0.207411
0.846242
0.179829
0.2109
0.922853
0.85865
1.52857
0.190366
0.567804
0.106686
0.93518
0.207981
0.209592
0.204166
0.108159
0.938296
0.20208
0.916674
0.119515
0.202112
0.877881
0.211558
0.181526
0.208799
1.08117
0.881342
0.80009
0.0287587
0.113683
0.109473
0.44199
0.863902
1.10445
1.07217
0.107508
0.450907
0.248235
0.229975
0.363162
1.08572
0.107498
0.835917
0.889084
1.05163
0.809201
0.110432
0.885997
0.860997
0.106026
0.911119
0.736868
0.0778266
0.877789
0.0772793
0.158786
0.608694
0.899861
0.151007
0.0789313
0.894861
0.880633
0.622183
0.879354
2.04494
0.235151
0.0384037
0.637316
0.314801
0.334418
0.120618
0.57671
0.952003
3.52786
1.81741
0.900626
0.798504
0.885734
0.898396
0.889727
0.373178
0.827772
0.858634
0.937732
0.60119
0.87951
0.542396
0.97772
0.792209
0.899976
0.973758
0.185849
1.05873
2.67326
0.422466
0.919416
0.498289
0.145179
0.893573
0.190097
0.248616
0.932569
0.645415
0.240565
4.29034
0.798853
0.968364
0.209128
0.140834
0.982353
0.180376
0.219128
0.0227237
0.0109789
0.232028
0.240571
0.143583
0.512978
0.24394
0.962447
0.505747
0.240665
0.138247
0.909952
0.51887
0.834401
0.932468
0.911863
0.268521
0.857765
0.74679
0.11834
0.958274
0.125641
0.87583
0.968666
0.895247
1.0747
0.969098
0.511557
0.947162
0.647869
0.110654
0.134705
0.201305
0.934397
0.86192
0.960067
0.151441
0.193426
0.217662
0.173964
0.812191
6.12902
0.886224
0.239493
0.447722
0.111794
0.879093
-0.145665
0.199083
0.205301
0.880786
0.211051
0.221929
0.445944
0.130132
0.232349
0.886003
0.440214
0.202861
0.290298
0.794686
0.900457
1.10684
0.824755
0.917154
0.537558
0.191154
0.436407
0.840594
0.108988
0.213309
0.916357
0.182548
0.998651
0.21597
1.21832
1.59814
0.915969
0.220427
0.624479
0.971866
0.869972
0.216562
0.726149
0.842886
0.913977
0.214374
0.914745
0.733321
0.869515
0.332232
0.853999
0.49593
0.869661
0.223328
0.890606
0.684069
0.915496
0.115152
0.590565
0.334178
0.581029
0.922919
0.139367
0.201557
0.945147
3.10026
0.102445
0.198318
0.67122
0.157569
0.164184
0.109729
0.271032
0.685352
0.139749
0.915951
0.181156
0.511523
0.338372
0.838705
0.336526
0.860626
0.250743
0.785165
0.675285
0.799961
0.338377
0.512873
0.67536
0.688046
0.528409
0.110453
0.208232
0.555764
0.184607
0.489806
0.209239
0.47844
0.209072
0.20858
0.133188
0.741135
0.960347
0.129279
0.177272
0.247225
0.68173
0.0923688
0.113571
0.657973
0.250906
0.313414
0.208084
0.208497
0.91857
0.266584
0.627542
0.123449
0.148346
0.226443
0.385117
0.607574
0.689974
0.138826
0.679254
0.459119
0.631031
0.63436
0.209003
1.10998
0.959336
0.352491
0.816776
0.192161
0.240002
0.702861
0.127653
0.702098
0.228423
0.293396
0.295851
0.0959549
0.0954707
0.614901
0.95778
0.475784
0.224015
0.760268
0.0957391
0.263361
0.12198
0.200517
0.968628
0.199419
0.952021
0.323793
0.590182
0.946467
0.331819
0.18232
0.659904
0.292379
0.600959
0.837902
0.631904
0.270808
0.341797
0.110142
0.866652
0.348059
0.654714
0.583194
0.624763
0.824141
0.947217
0.333824
0.105403
0.943599
0.234522
0.861578
0.602887
0.190614
0.137936
0.755094
0.259159
0.722875
0.705464
0.74174
0.643849
0.880899
0.10598
0.102846
0.768165
0.105324
0.260682
0.102581
0.656923
0.565628
0.15602
0.705274
0.105462
0.766102
0.831871
0.54258
0.182073
0.221971
0.115042
0.729296
1.08931
0.827047
0.319011
0.897927
0.110777
0.132408
0.819809
0.817177
0.216395
0.100062
0.783085
0.887347
0.438313
0.81176
0.816562
0.249881
0.12434
0.256114
0.863826
1.0551
0.540167
0.634746
0.16913
0.712228
0.915166
0.179672
0.66973
0.147154
0.249595
0.180707
0.974244
0.253598
0.634229
0.833219
0.816189
0.664685
3.70923
0.895205
0.845361
1.05341
1.09622
0.837373
0.201336
0.708699
0.536171
0.951881
0.392098
0.23244
0.858909
0.249766
0.232855
0.239446
0.79875
0.834178
0.770146
0.220013
0.257949
0.235852
0.577883
0.29948
0.219592
0.267992
0.113803
0.59602
0.85226
0.437836
0.23379
0.837894
0.508675
0.19331
0.83616
0.912537
0.796046
0.285882
0.795283
0.237254
0.531815
0.821618
0.854822
0.228951
0.839014
0.228386
0.828555
0.228179
0.827935
0.246587
0.240543
0.552668
0.267991
0.847356
0.240664
0.24059
0.510679
0.240493
0.203953
0.0638495
0.0608118
0.836278
0.526001
0.731558
0.545981
0.802012
1.05168
0.564858
0.204062
0.881286
0.567194
0.413078
0.379502
0.201896
0.294519
0.211159
0.204493
0.270723
0.369311
0.24107
0.302724
0.918972
0.285746
0.168499
0.189318
1.02061
1.61691
0.586624
0.646754
0.28189
0.0230838
0.862588
0.560641
0.131687
0.932575
0.412093
0.241563
0.166374
0.313458
0.076246
0.90726
0.27246
0.195459
0.172325
0.238343
0.859575
0.849977
0.636667
0.308079
0.28095
0.903337
0.290819
0.599195
0.636595
0.19103
0.843635
0.673106
0.239782
0.15905
0.298884
0.718047
0.165688
0.313175
0.11022
0.121074
0.107467
0.120436
0.389772
0.54089
0.691513
0.679575
1.35097
0.157286
0.903027
0.249235
0.228178
0.180774
0.364862
0.277423
0.31742
0.121864
0.768728
0.272182
0.320266
0.118254
0.127798
0.708783
0.113165
0.157432
0.84739
0.564737
0.133695
0.688052
0.77075
0.696722
0.223393
0.298608
0.150803
0.321942
0.513591
0.546247
0.738995
0.570982
0.200649
0.23665
0.53631
0.153699
0.772732
2.19043
0.118544
0.524618
2.49796
0.922662
0.823274
0.514741
0.860263
0.893317
0.8723
0.118617
0.87533
0.880184
0.16008
0.340938
0.877502
0.83445
0.807792
0.837531
0.166271
0.893956
0.158582
0.120509
0.149969
0.120933
0.211821
0.490032
0.177249
0.866072
0.897744
0.315804
0.461535
0.291336
0.121766
0.869531
0.0819114
0.856299
0.286007
0.476702
0.341165
0.138794
0.85782
0.864679
0.919223
0.776353
0.25141
0.844473
0.138669
0.920972
2.71351
0.0989297
0.929956
0.252739
0.194396
0.937673
0.262007
0.370749
0.246666
0.246185
0.93508
0.916316
0.234595
0.275719
0.926196
0.676145
3.50801
0.202185
0.812987
0.265726
0.902061
0.602593
0.628943
1.35563
0.196027
0.325989
0.586207
0.257998
0.183645
0.68911
0.543805
0.258096
0.19552
0.125317
0.915893
0.919104
0.345198
0.635798
0.238971
0.536911
0.235919
0.755819
0.215145
0.577573
0.819155
0.573622
0.302276
0.590645
0.716468
0.420691
0.375213
0.391506
1.2178
0.109082
0.110496
1.03095
0.109338
0.834516
0.777401
0.340624
0.132993
0.206624
0.715016
0.895012
0.870536
0.398529
0.349507
0.109383
0.71471
0.930115
0.775354
0.110376
0.722526
0.188165
0.546389
0.894994
0.0971135
0.107603
0.988163
0.959043
0.373786
0.86812
0.21668
0.231069
0.418956
0.773845
0.960009
0.110762
0.825457
0.83671
0.109931
0.806687
0.926741
0.947019
0.762155
0.897761
0.896924
0.9205
0.935607
0.0449511
0.854221
0.93205
0.797206
0.883687
0.467613
0.32016
0.302117
0.151561
0.878924
0.85215
0.68841
0.963192
0.833876
0.900353
0.186053
0.86731
0.882353
0.35604
0.819767
0.247111
0.18927
0.185345
0.910322
0.827639
0.213194
0.202041
0.921215
0.971829
1.07791
0.239204
0.234553
0.803697
0.121582
0.274203
0.0912052
0.0937946
1.277
0.109341
0.244475
0.672938
0.185306
0.121561
0.210776
0.208088
0.225534
0.161013
0.262275
0.693461
0.146766
0.190853
0.174773
0.866722
0.356374
0.241942
0.242068
0.242176
0.200233
0.278762
-0.0263999
0.537923
0.979485
0.503658
0.550342
0.241784
0.93199
0.185441
0.800899
0.186428
0.782671
0.855461
0.145766
0.194172
0.574482
0.770199
0.511185
0.570494
0.110231
4.43059
0.11036
0.964713
0.108643
0.26487
0.549627
0.0817279
0.891582
0.442374
0.95834
0.54502
0.108135
0.223646
0.0578125
0.533706
0.684381
0.346552
0.517875
0.266774
0.325778
1.05266
0.932929
0.743625
0.970849
0.828391
0.218038
0.89715
0.837673
0.969252
0.15213
0.981035
0.558649
0.242246
0.846001
0.108517
0.127473
1.31469
0.260577
0.827204
0.276737
0.921408
0.804479
0.926347
0.264162
0.165944
0.128872
0.653309
0.917987
0.119892
0.926646
0.0418554
1.25811
0.258901
0.198033
0.839349
0.423331
0.341932
0.208623
0.5313
0.216029
0.963719
0.573039
0.942615
0.0760299
0.0798893
0.0757002
0.10892
0.0775728
0.833362
0.0804453
0.0786451
0.242996
0.243093
0.134928
0.349025
0.937381
2.19809
0.813485
0.243271
1.32921
0.175891
0.169361
0.450825
0.965641
0.972562
0.040058
0.820422
0.0427733
0.0102434
0.976075
0.279261
0.321001
0.00650636
0.336886
0.261463
0.200178
0.231031
0.14304
0.526164
0.869901
0.176327
0.283536
0.0214975
0.84766
0.830444
0.0157762
0.829376
0.18114
0.841723
0.45429
0.813755
0.59123
0.395441
0.768655
0.708389
0.130877
0.906995
0.76261
0.106526
0.890384
0.749231
0.130977
0.756298
0.228409
0.151826
0.785195
0.115813
0.114862
0.977586
0.0681314
1.43861
0.134728
0.136419
0.815667
0.844684
0.126104
0.0902484
0.384556
0.710862
0.164898
0.115102
0.951889
0.846551
0.83743
0.754137
0.752169
0.239246
0.179117
0.886411
0.893115
0.227679
0.696173
0.133637
0.794514
0.783373
0.20002
0.191369
0.694119
1.34144
0.122357
0.114351
0.178595
0.56332
0.812332
0.269593
0.891024
0.179096
0.793559
0.707513
0.225179
0.584463
0.761079
0.12694
0.301283
0.177737
0.518364
0.242582
0.167342
0.856027
0.750509
0.293681
0.613916
0.882541
0.76813
0.347123
0.106539
0.109289
0.761495
0.757447
0.132728
0.821869
0.128002
0.12157
0.821471
0.103103
0.815392
0.821829
0.168475
0.138615
0.914734
0.321757
0.815653
0.161997
0.818941
0.139457
0.817375
0.765869
0.124436
0.64052
0.76691
0.196594
0.748528
0.223657
0.359394
0.138821
0.102503
0.900681
0.150799
0.355899
0.162788
0.0868906
1.00013
0.493677
0.146873
0.172315
0.608801
0.211805
0.956114
0.247034
1.05533
0.945134
0.204645
6.86007
1.51354
0.93428
4.41352
0.105614
0.0574477
0.19355
0.103593
0.339504
0.106715
0.138061
0.13237
0.10608
0.106704
0.862167
0.316719
0.506351
0.128516
1.32285
0.148214
0.350571
0.220247
0.952899
0.295756
0.959912
0.950683
0.962299
0.260003
0.196881
0.28811
0.0991188
0.24986
0.947982
0.720149
0.189693
0.952916
0.988132
0.137658
0.120442
0.144807
0.35132
0.221251
0.983042
0.950992
0.217959
0.983669
0.262079
0.864329
0.988652
0.221183
0.991143
0.247326
0.96555
0.251934
0.20722
0.483008
0.257121
0.110065
0.481529
0.959449
0.343551
1.11301
0.932672
0.990182
0.852122
1.03231
1.10783
0.236311
0.921751
0.634386
0.401756
0.14781
0.112596
0.108841
0.964294
0.187734
0.190039
1.46532
0.0854362
1.10037
0.950659
0.326841
0.110547
0.189028
0.0908088
1.07396
0.230654
0.185406
0.161149
0.133327
0.0900195
0.327874
0.320802
0.130093
0.241005
0.192016
0.316281
0.0409291
0.317061
0.0732387
0.322511
0.269417
0.331525
0.268864
0.242435
0.113821
0.179703
0.189212
3.09967
0.967943
0.200747
0.948176
0.20555
0.1556
1.21454
0.19234
0.267399
0.906712
0.871637
0.878396
0.896682
0.264519
0.111373
0.151448
0.0284759
0.144636
0.984788
0.328237
0.266614
0.251355
0.883642
0.235322
0.848653
0.890103
0.110925
0.869707
0.270623
0.877018
0.901988
0.67487
0.176768
0.264272
0.457465
0.197949
0.487503
0.1149
0.37789
0.907511
0.895593
0.17112
0.925943
1.02141
0.844458
0.0728237
0.304748
0.302253
0.33346
0.198272
0.52821
0.895613
0.402523
0.146948
0.262735
0.278383
0.0560019
0.610611
0.0599503
0.161392
0.245355
0.355857
0.886196
0.0992171
0.899285
0.894733
0.273013
0.880571
0.401612
0.0707745
0.282431
0.152289
0.151627
0.0112477
0.190725
0.162259
0.105424
0.145125
0.138327
0.163293
0.20541
1.00244
0.241809
0.103824
0.603106
0.386935
0.881999
0.386276
0.1942
0.117929
0.395323
0.164786
0.078513
0.393856
0.863891
0.205112
0.244382
0.547759
0.315806
0.815486
0.586485
0.49702
0.819267
0.285918
0.500004
0.67232
0.16991
0.223182
0.371653
0.204918
0.122212
0.238859
0.246513
0.0973736
0.880936
0.229545
0.171565
0.211635
0.315488
0.721157
0.208153
0.614994
0.913803
0.611999
0.168677
0.146846
0.495211
0.508662
0.127559
0.242414
0.213928
0.32873
0.24628
0.170538
0.174944
0.878766
0.830538
0.206507
0.256769
0.38274
0.455262
0.333826
0.304903
0.221691
0.250016
0.354531
0.2184
0.111084
0.125517
0.24912
0.940606
0.25617
0.645656
0.173417
0.301791
0.20381
0.646203
0.23957
0.25754
0.148793
0.746442
0.373451
0.256034
0.239872
0.176456
0.214923
1.02395
1.21054
0.942813
0.039947
0.47133
0.520695
0.263299
0.324457
0.346264
0.379018
0.172533
0.229506
0.200337
0.404475
0.900386
0.221909
0.096696
0.884081
0.880989
0.172295
0.119203
0.0990061
0.84305
0.847575
0.247766
0.831063
0.212534
0.21544
0.20619
0.175678
1.7349
0.263799
0.316597
0.100685
0.394218
0.872861
0.75161
0.320214
0.682933
0.752733
0.234258
0.247774
0.845126
0.75642
0.878655
0.51274
0.148873
0.0884342
0.224494
0.19133
0.151271
0.302229
0.114701
0.257792
0.236284
0.158086
0.860664
0.824363
0.891216
0.122344
0.142186
0.882001
0.891067
0.191775
0.833875
0.843724
0.83639
0.827012
0.325211
0.137076
0.204076
0.136779
0.144756
0.813817
0.123794
0.818239
0.0238694
0.124452
1.00259
0.105607
1.31815
1.32769
0.141172
0.565483
0.209647
0.132599
0.111586
0.134157
0.135845
0.160173
0.098575
0.0900829
0.0892261
0.238533
0.450649
0.123597
0.132593
0.10177
0.306868
0.234543
0.809607
0.0889744
0.171787
0.112501
0.159764
0.114336
0.134109
0.128025
0.945213
0.224045
0.13168
0.100932
0.133195
0.0629691
0.187567
0.183486
0.782315
0.0882715
0.112897
0.134597
0.922452
0.110139
0.134382
0.988851
0.144465
0.926676
0.127438
0.132551
0.141776
0.921774
0.118222
0.933103
0.987268
1.11199
0.138874
0.116509
0.110656
0.134103
0.195995
2.00388
0.912147
0.184187
0.236292
0.844984
0.0777442
0.844599
0.845582
0.119017
0.928784
0.344712
0.345086
0.169316
0.953624
0.100726
0.127138
1.13488
0.478642
0.185598
2.32724
0.109495
0.262974
0.181159
0.129964
0.864552
0.152812
0.944313
0.419983
0.0816035
0.164634
0.201963
0.271256
0.147986
0.215535
0.218829
0.349566
0.872021
0.105287
0.116174
0.148103
0.0952779
0.843145
0.922493
0.195064
0.362017
0.124935
0.870397
0.0519408
0.644348
0.948631
0.608991
0.579304
0.691441
0.257661
0.828932
0.139935
0.815371
0.866079
0.125659
0.2016
0.147679
0.125115
0.465638
0.865146
0.867665
0.128014
0.107751
0.39746
0.769837
0.108384
0.200577
0.165676
0.321261
0.210473
0.866669
0.571584
0.150577
0.932602
0.155521
0.905365
0.16773
0.122006
0.159705
0.242033
0.129754
0.222285
0.205002
0.134997
0.225142
0.894628
0.120649
0.529425
0.52597
0.482862
0.178587
0.181811
0.531234
0.902737
0.477162
0.135505
0.130903
0.908534
0.373202
0.339868
0.107392
0.224253
0.886468
0.959037
0.134813
0.141277
0.104705
0.102056
0.141359
0.114085
1.02488
0.183122
0.242196
0.176451
0.107048
0.106844
0.212585
0.256239
0.900505
0.909982
0.191704
0.885136
0.882259
0.253592
0.15807
0.368385
0.129778
0.898345
0.196877
0.226082
0.397327
0.180158
0.244999
0.228876
0.0925064
0.35742
0.226121
0.266819
0.248074
0.233235
0.223884
0.252711
0.891752
0.228414
0.132605
0.183694
0.894553
0.262826
0.234779
0.953194
0.11564
0.248701
0.973521
0.243355
0.892194
0.170474
0.106102
0.297557
0.10399
0.130312
0.962058
0.895534
0.188356
0.215078
0.212496
0.135137
0.126234
0.399219
0.102763
0.103111
0.102265
0.947303
0.20836
0.934649
0.272051
0.158527
0.151397
0.960178
0.392785
0.10328
0.289229
0.844866
0.70748
0.318663
0.101395
0.101553
0.986011
0.799348
0.711477
0.187867
0.189369
0.376825
0.285644
0.238938
0.24881
0.137724
0.242907
0.65357
0.24791
0.848717
0.346537
0.38688
0.189643
0.249265
0.233727
0.18502
0.293245
0.507655
0.0429589
0.265121
0.815173
0.471097
0.187618
0.252033
0.252091
0.137774
0.711509
0.384892
0.232009
0.130135
0.258702
0.251505
0.211401
0.257185
0.239318
0.208656
0.102517
0.187753
0.179819
0.858854
0.790338
0.284562
0.964315
0.440808
0.163241
0.10267
0.958669
0.837505
0.103119
0.483982
0.349041
0.240152
0.132809
0.134938
0.20939
0.227171
0.122162
0.37052
0.227168
0.833781
0.706151
0.500125
0.562186
0.227539
0.127154
0.247302
0.274734
0.863914
0.22764
0.774736
0.00577326
0.829785
0.81248
0.933209
0.0115178
0.886882
0.951052
0.00869763
0.382203
0.191091
0.012586
0.38417
0.00682268
0.68169
0.117768
0.956242
0.00239523
0.112146
0.113551
0.894559
0.240327
0.0390234
0.191169
0.286441
0.213461
0.918195
0.44924
0.244198
0.896647
0.884221
0.880084
0.793787
0.868193
0.499686
0.508854
0.161111
0.370344
0.150576
0.516778
0.461437
0.240155
0.181922
0.1541
0.240368
0.818421
0.15141
0.240221
0.148026
0.845943
0.240283
0.255052
0.325112
0.0654128
0.299931
0.0671162
0.204306
0.300346
0.100703
0.858361
0.477683
0.876158
0.626768
0.295417
0.570185
0.0974567
0.291926
0.0671993
0.589639
0.0796148
0.296375
0.748542
1.04118
0.420102
0.701708
0.67245
0.820096
0.841726
0.291564
0.224095
0.693418
0.541904
1.04518
1.06056
0.204433
0.654872
0.388372
1.18585
0.709006
0.761501
0.877063
0.263224
1.14636
0.274936
0.813634
0.804582
0.853092
1.20646
0.245104
1.15058
1.13997
1.10045
0.733423
0.8422
0.9145
0.299546
0.841516
0.569517
0.209977
0.138934
0.239735
0.655912
1.00508
0.150819
0.179424
1.03656
1.01582
0.505815
0.540043
0.677747
0.912493
0.749219
1.03821
0.61716
0.364797
1.00379
1.01042
0.383421
1.01437
0.992006
0.512525
1.03628
0.582939
0.444962
0.182455
1.02619
0.451016
0.200232
0.208806
0.851678
1.00957
1.0217
0.937703
0.249392
0.232209
1.00381
2.77846
0.8008
0.123178
0.936411
2.90996
3.31778
0.205429
0.446413
0.564839
0.205521
0.367306
0.822853
0.260742
0.771609
0.00716326
0.233223
0.200532
0.249982
0.918181
0.315012
0.205088
0.914951
0.940088
0.20448
0.271333
0.204638
0.908965
0.704167
0.925665
0.231485
0.17363
0.918124
0.175334
0.804274
0.858604
0.1795
0.808198
0.84603
0.29815
0.179715
0.822323
0.560793
0.177462
0.831706
0.528634
0.177799
0.0785909
0.627512
0.135591
0.080902
0.322371
0.0795212
0.244723
1.2844
0.852099
0.328399
0.210166
0.32962
0.444975
0.844035
0.200125
0.130687
0.4449
0.206889
0.215642
0.239982
0.913369
0.643551
0.0148556
0.421911
0.187859
0.131692
0.475268
0.436578
0.191352
0.845571
0.259928
0.213107
2.06148
0.436301
0.563348
0.315057
0.871906
0.421706
0.0792779
0.140167
0.749706
0.146218
0.369839
0.649145
0.647173
0.179286
0.337744
0.846637
0.787072
0.641285
0.838146
0.919229
0.205647
0.515373
0.794554
0.544431
0.860775
0.326221
0.174178
0.639608
0.241339
0.183893
0.406612
0.172633
0.644664
0.327706
0.381333
0.48975
0.441865
0.33244
0.554809
0.304506
0.175647
0.468124
0.513087
0.564789
0.471088
0.36703
0.853171
0.255987
0.474477
0.708094
0.261861
0.445863
0.198113
0.282569
0.175898
0.197701
0.20938
0.194781
0.369768
0.155881
0.19773
0.965434
0.208264
0.183665
0.250825
0.134985
0.873244
0.898217
0.19824
0.73535
0.19462
0.768962
0.198764
0.198299
0.305639
0.885983
0.239788
0.345983
0.455757
0.217837
0.431467
0.831999
0.583481
0.833673
0.680821
0.0592156
0.836433
0.880906
0.192313
0.833115
0.865163
0.844186
0.211311
0.863413
0.751286
0.855966
0.304291
0.323429
0.236404
0.351871
0.873153
0.819007
0.709982
0.8363
0.854552
0.847928
0.774487
0.878092
0.641101
0.726644
0.20815
0.868241
0.284842
0.335713
0.176113
0.136924
0.261414
0.0625273
0.13659
0.842357
0.206073
1.05283
0.740344
0.13621
0.854002
0.858318
0.762528
0.136234
0.852927
0.811285
0.949898
0.370968
0.281255
0.135919
0.42239
0.135882
0.312916
0.322269
0.941826
0.915624
0.154945
0.838252
0.244967
0.891289
0.264661
0.243581
0.970412
0.950167
0.186288
0.169476
0.118419
0.439983
0.944122
0.0783008
0.244063
0.289273
0.946098
0.224656
0.536206
0.214187
0.951332
0.309797
0.243815
0.380323
0.128072
0.174035
0.071074
0.244983
0.206913
0.949485
0.189981
0.956798
0.969109
0.95649
0.973441
0.967114
0.354084
0.24418
0.202156
0.253953
0.154882
0.15799
0.148371
0.355882
0.392357
0.0544359
0.362812
0.222545
0.0346667
0.352516
0.134341
0.215447
0.167515
0.0588616
0.333281
0.362545
0.237642
0.237522
0.172115
0.862094
0.239018
0.29611
0.458973
0.301622
0.636089
0.155479
0.268722
0.150419
0.238386
0.224804
0.140206
0.143718
0.172456
1.0105
0.232641
0.0503818
0.239162
0.340304
0.177082
0.235124
0.28313
0.639846
0.438151
0.901777
0.852405
0.199698
1.0058
0.974614
0.129029
0.993573
0.588929
0.702731
0.213155
0.708291
0.805744
0.227553
0.221278
0.129253
0.154442
0.0230366
0.139391
0.283168
0.129862
0.130411
0.977648
0.157129
0.0888123
0.190242
0.860786
0.914303
0.463736
0.167607
0.490522
0.661269
0.218583
0.171028
0.129475
0.241106
0.189491
0.183282
0.47414
0.130297
0.22261
0.223023
0.415214
0.221332
0.170514
0.248881
0.143475
0.107622
0.114829
0.846798
0.115935
0.829974
0.924756
0.826278
0.205346
0.163467
0.170549
0.091774
0.164612
0.772684
0.548732
0.553949
0.305773
0.475225
0.154381
0.478941
0.183543
0.326361
0.0987255
0.432928
0.167137
0.80536
0.894531
0.183294
0.831899
0.0945557
0.166702
0.210211
0.8844
0.85147
0.0547348
0.121959
0.815186
0.0940992
0.927606
0.434677
0.198038
0.961071
0.770792
0.729827
0.166893
0.448334
0.86507
0.0979122
0.930894
0.176469
0.950559
0.195657
0.289741
0.0972922
0.219287
0.12263
1.00642
0.146619
0.496651
1.14953
0.853319
1.16183
0.852459
0.230828
0.492992
0.120356
0.269193
0.227746
1.12856
0.269674
0.118526
0.908398
0.121668
0.833974
0.840805
0.94993
0.786981
1.19603
1.03369
0.122314
0.899246
0.247312
0.786867
0.908413
1.10443
0.899584
0.889595
0.782131
0.421799
0.237946
0.122827
0.243441
0.249801
0.413776
0.451366
0.237391
0.241383
0.42491
0.04364
1.00016
0.776281
0.943229
0.982856
1.01243
0.94578
0.259645
0.207115
1.17031
0.202769
0.0983831
0.218196
0.781811
1.15715
0.246716
0.148205
0.260908
0.184928
0.333664
0.139255
1.15087
0.230747
0.414972
0.211715
0.707548
0.18726
0.775436
0.179901
0.884322
0.901988
0.272297
0.173506
0.184024
0.183056
0.169639
0.282052
0.352399
0.206732
0.0954431
0.181345
0.856014
0.155313
0.154169
0.154723
0.378255
0.141485
0.363656
0.33275
0.141234
0.139867
0.805318
0.140066
0.339985
0.935821
0.85936
0.993367
0.301359
0.140802
0.105409
0.947055
0.299562
0.153333
0.317445
0.187348
0.136274
0.400545
0.211746
0.915688
0.455299
0.21096
0.352982
0.923916
0.221191
0.279191
0.136193
0.112537
0.211319
0.113809
0.0936209
0.225363
0.160569
0.210672
0.19602
0.140966
0.299643
0.126585
0.128248
0.507174
0.129794
0.322247
0.135112
0.237464
0.88987
0.132624
0.539962
0.123647
0.122856
0.67296
0.282954
0.432531
0.401469
0.195217
0.913311
0.229984
0.0994652
0.917528
0.195444
0.916769
1.05102
0.931858
0.101021
0.194704
0.507742
0.0529188
0.942488
0.280227
0.097666
0.100891
0.388937
1.27912
0.334538
0.195256
0.191158
0.704666
0.121744
0.197677
0.164665
0.194093
0.819863
0.115929
0.88757
0.202773
0.923053
1.28235
0.133769
0.100254
0.125141
0.19458
0.104061
0.258342
1.10168
1.15317
0.144594
0.906047
0.931221
0.362677
0.348918
0.106602
1.24118
0.14288
0.164802
0.195157
0.664466
1.32484
0.12783
0.811272
1.3688
0.989481
0.194727
0.244883
1.13716
0.594277
0.241583
0.220208
1.19132
0.272091
0.914487
0.77929
0.949453
0.663107
0.450591
0.219718
0.797651
0.0456718
0.96592
0.245858
1.06688
0.0828042
1.0769
0.702691
0.205615
0.36907
0.225381
0.224939
0.222008
0.017233
0.30049
0.224494
0.938071
0.913233
0.892869
0.958761
0.165885
1.14983
1.05072
0.918269
0.223236
0.858577
0.352454
0.916979
0.921584
0.142928
0.751775
1.01552
0.828671
1.35177
0.799936
0.876627
0.867101
0.884332
0.323354
0.867235
0.854249
0.863984
0.855285
0.97246
0.853587
0.163155
0.643484
0.814024
0.825672
0.883505
0.309296
0.901974
0.298978
0.355543
0.612252
0.283766
0.868849
0.971346
0.932375
0.156037
0.140403
0.844283
0.841812
0.141581
0.847779
0.218633
0.137286
0.964015
0.17927
0.225099
0.213186
0.83618
0.875329
0.994485
0.143673
0.143826
0.14556
0.283898
0.153126
0.286621
0.237487
0.932485
0.194433
0.145424
0.986039
0.127672
0.9636
0.187233
0.196691
0.138236
1.00277
0.163575
0.286201
0.270649
0.321091
0.107435
0.0668198
0.143721
0.409099
0.0613206
0.508881
0.0141036
0.99846
0.0670355
0.148682
0.213252
0.262012
0.0615335
0.301491
0.352427
0.330941
0.311321
0.144902
0.274027
0.0589984
0.12163
0.0455274
0.241108
0.0591829
0.0405738
0.0409499
0.134607
0.234494
0.285154
0.460313
0.450707
0.14225
0.135111
0.100813
0.0781665
0.252627
0.0415922
0.0784163
0.0723446
0.0409222
0.13942
0.121012
0.138276
0.142499
0.866124
0.135619
1.24884
0.26089
0.125222
0.559823
0.914332
0.159164
0.110198
1.27566
1.32477
0.421831
0.300187
1.38206
0.230675
0.0424532
1.38444
0.175579
1.21332
0.256392
0.0428328
0.106244
0.0107197
0.87765
0.00500755
1.24834
0.271584
0.0126685
0.200205
0.157796
0.58451
0.00243394
0.234556
0.117713
0.899703
0.00942633
0.133453
0.181271
0.240877
0.134984
0.200187
0.0890768
0.0985168
0.146608
0.0927854
0.00458588
0.126375
0.159604
0.127375
1.19464
0.121665
0.189651
0.237481
0.238359
0.886034
0.121764
0.862578
0.876899
0.961228
0.124249
0.226467
0.124191
0.239099
0.156935
0.311258
0.122645
0.108462
0.356074
0.122587
0.238329
0.183751
0.14276
0.286459
0.161762
0.116794
0.389357
0.116185
0.105844
0.117959
0.196131
0.864288
2.34634
0.12177
0.209512
0.187615
0.370158
0.258133
0.408277
0.117532
0.16759
0.17109
2.26484
0.206066
0.178916
0.115771
2.19203
0.147271
0.251491
0.251456
0.209833
0.0847788
0.0531285
0.164299
0.236622
0.156509
0.246573
0.255546
0.256636
0.163299
0.169547
0.181953
0.231776
0.132928
0.255986
0.260413
0.433342
0.898973
0.0892603
0.173057
0.730099
0.202732
0.195314
0.0906486
0.27282
1.23361
0.23336
0.471379
0.0930883
0.194441
0.163575
0.275936
0.201912
0.197179
0.181664
0.276722
1.40068
0.161084
0.129453
1.50634
1.58484
0.689887
0.261719
0.234197
0.166501
0.244526
0.221751
0.140686
0.218613
0.921346
0.206969
0.181214
0.18737
0.218785
0.216293
0.0911811
0.0927359
0.712376
0.109506
0.21029
0.115384
0.189251
0.262567
0.955842
0.099878
0.213055
0.0429626
0.196662
0.959807
0.724278
0.959994
0.277838
0.355983
0.201937
0.114154
0.966257
0.185795
0.954571
0.955982
0.0670774
0.201393
0.293695
0.718825
0.127802
0.21389
0.957151
0.147691
0.371153
0.227662
0.160324
0.247532
0.207284
0.0999574
0.26179
0.653883
0.957407
0.912845
0.134356
0.917579
0.927226
0.0426616
0.911273
0.222222
0.351844
0.178003
0.113187
0.224861
0.12324
0.347472
1.13477
0.312172
0.0218593
0.92785
0.339151
0.143843
0.183497
0.346435
0.208086
0.204418
0.157712
0.285305
0.196493
0.154723
0.290772
0.336236
0.1441
0.305114
0.922418
0.924003
1.33003
0.522354
0.326876
0.222072
0.150814
1.31284
0.224929
0.184359
0.15945
0.21115
0.138929
0.300593
0.305532
0.373627
0.278086
0.288886
0.89969
0.0430967
0.193765
0.235953
0.0927815
0.143466
0.083419
1.32489
0.242144
0.488488
0.203646
0.119251
0.221601
0.316786
0.297466
0.310711
0.164479
1.31666
1.334
0.20846
0.910037
0.131944
0.912349