/*--------------------------------*- C++ -*----------------------------------*\
| =========                 |                                                 |
| \\      /  F ield         | OpenFOAM: The Open Source CFD Toolbox           |
|  \\    /   O peration     | Version:  v2012                                 |
|   \\  /    A nd           | Website:  www.openfoam.com                      |
|    \\/     M anipulation  |                                                 |
\*---------------------------------------------------------------------------*/
FoamFile
{
    version     2.0;
    format      ascii;
    class       surfaceScalarField;
    location    "1.5";
    object      phi;
}
// * * * * * * * * * * * * * * * * * * * * * * * * * * * * * * * * * * * * * //

dimensions      [1 0 -1 0 0 0 0];
oriented        oriented;


internalField   nonuniform List<scalar> 
210647
(
-0.000487175
0.000460141
0.000447713
-0.000420655
0.000109875
-5.7179e-05
0.000221913
-0.000274662
-0.000642985
0.000856258
-8.87483e-05
-0.000124546
-0.00269111
0.00128689
0.00141399
-9.71367e-06
-0.000217188
0.000972174
-0.0003451
-0.000409935
2.07001e-07
7.56685e-06
-3.21734e-07
-7.46419e-06
-0.000327386
1.25935e-05
0.000153023
0.00016172
-1.6651e-05
-5.316e-05
6.97952e-05
0.00334386
-0.00653571
0.00586786
-0.00267449
5.65664e-05
-0.000390399
0.000241551
9.22587e-05
-0.000209678
-0.000173039
-0.000220711
0.000603377
-0.000165564
-0.000495254
0.000213822
0.000446955
-0.000719834
0.000947413
-0.000833371
0.000605801
7.92295e-05
-8.52576e-05
7.14536e-05
-6.5448e-05
0.000159434
-3.88487e-05
8.86853e-05
-0.00020913
0.000767736
-0.000850231
9.16788e-05
-9.20646e-06
0.000290443
-0.000346576
-4.40034e-05
0.000100121
-8.99041e-05
0.000107269
-0.000134797
0.000117449
0.00249768
0.000433345
-0.00138218
-0.00154883
-0.000121404
-0.000169671
-3.28633e-05
0.000323896
-7.6776e-06
0.000163613
-0.000155961
0.00282857
0.00225552
-0.00400641
-0.00107744
-8.57262e-05
1.26088e-05
0.000119501
-4.6424e-05
-5.02671e-05
6.69891e-05
8.02637e-05
-9.66754e-05
-0.000923191
0.00150839
-0.000694523
0.000109346
6.10772e-06
-6.08597e-05
7.32244e-05
-1.85162e-05
0.00253358
-0.00218294
0.000400363
-0.000716091
0.000369572
5.58562e-06
-5.51966e-05
-0.000320014
-0.000363512
0.000147372
-5.63585e-05
0.00027243
4.23958e-05
4.48621e-05
-0.000110586
2.33151e-05
-0.0147128
0.0103621
-0.00299997
0.012735
0.000176401
-3.82476e-05
-0.000113767
-2.44272e-05
0.00302837
-0.00049229
8.17125e-05
0.000674818
-0.000760559
4.04898e-06
-0.00300326
-0.00127096
0.00520139
-0.000927111
1.29022e-05
-1.25307e-05
0.000451022
-0.000451458
-0.00179063
-0.0025728
-0.000274499
0.004648
0.000280653
0.00012997
-0.000410609
-0.0001261
5.47454e-05
4.00159e-05
3.13102e-05
2.75019e-05
-0.000105046
-0.000114397
0.000191904
0.000111529
0.000263358
-0.000345135
-2.98477e-05
0.000758267
-0.000495863
-0.000142204
-0.000118914
6.521e-05
-1.36144e-05
-5.16253e-05
0.000314652
-0.00323105
0.00291651
-0.000784266
0.00049927
0.000327461
-4.25057e-05
-3.1241e-06
3.19266e-06
-4.99255e-05
4.98397e-05
0.00123849
4.9472e-05
-0.000234542
0.000185018
0.000186525
-0.000199448
-0.000124815
0.000137649
-0.000161446
4.67365e-06
-0.000371222
0.00052795
0.000791055
0.0031518
-0.000430374
-0.00350993
0.000526227
-0.000550947
-3.09431e-05
5.55739e-05
-0.000100984
-0.000105296
-5.74216e-05
0.000263645
0.000805827
0.000158949
0.000656058
-0.0016188
-7.46524e-05
-9.15846e-05
-8.44768e-05
0.000250726
-0.000136326
-0.000183857
2.20528e-05
0.000298531
0.00331969
0.00142164
-0.00285983
-0.00187972
-5.50297e-05
0.000409332
-0.000758351
0.000403999
0.000795379
-0.000739778
-0.000750498
0.000694894
0.000849904
-0.00040371
-0.00055873
0.000112468
-4.87435e-05
-0.00061
5.2398e-05
0.000606292
0.000555537
0.000619324
-0.00176205
0.00058719
4.57632e-05
0.00029528
-0.000325227
-1.58694e-05
-5.10441e-05
-7.18639e-06
-1.14915e-05
6.96937e-05
-0.000210459
0.00232234
-0.000453495
-0.00165822
-0.000185264
0.000240597
2.33132e-05
-7.87173e-05
-0.00110082
0.000285367
0.000815554
-0.00165266
0.000563251
0.00036998
0.000719377
-0.000292068
0.000229423
0.000260461
-0.000197864
0.000944336
-0.000494102
-0.000581489
0.000131206
1.17591e-05
7.57623e-05
-4.69112e-05
-4.03961e-05
-0.000919993
0.000551915
0.00106426
-0.00069621
0.000502959
0.00024821
-0.000119129
-0.000632091
7.44217e-05
-0.000370136
-0.000624322
-8.05066e-05
0.00022345
0.000130578
-0.000273563
0.0164209
0.00398462
0.00135507
-0.0216167
-5.17961e-05
7.27178e-07
0.000744568
-0.000765779
0.000153074
-0.000131896
1.95353e-05
-0.00554848
0.00423139
0.00129941
-0.000105483
-0.00200241
4.31471e-05
0.00206483
-0.000433777
0.000260821
0.000639715
-0.000466605
-0.000189279
0.000216302
-6.02582e-05
3.32176e-05
0.000352621
0.000689669
-0.00131361
0.000271295
-5.56027e-05
0.000347247
-0.00029162
0.00013211
-7.25472e-05
8.42417e-05
-0.000143772
1.02403e-05
-6.42991e-05
8.94794e-05
-3.54496e-05
0.000403403
0.000418829
-0.000768955
-5.32447e-05
-7.202e-06
0.000304082
2.37375e-05
-0.000320646
-4.64311e-05
0.000144688
0.000304932
-0.000403194
0.00135484
0.00103311
-0.000933128
-0.00145469
-0.00119459
-4.77655e-06
0.00115504
4.43641e-05
0.00448033
0.00867614
-0.00529361
-0.00749693
-7.16244e-05
0.000125806
-0.00124872
-0.000246786
0.000351169
-0.000104395
0.00144509
-0.000859061
-0.000730043
0.00014405
0.000132949
2.54795e-05
-0.000279014
0.000120547
0.00120495
0.00108146
0.00424661
0.000206669
-0.000267205
-7.02066e-05
0.000130965
-0.00772066
0.00618668
0.000655933
0.003673
0.00251211
0.000895141
-0.00055546
-0.00285079
0.00049835
-0.000802125
-0.0006547
0.000958467
0.000738521
-0.00333229
0.0027204
-0.00012663
-0.000217312
0.000251707
4.94622e-06
-3.89689e-05
4.00778e-06
-0.000291301
2.59984e-07
0.000286985
0.000385852
-0.000203389
-0.000217196
3.48609e-05
0.00137353
8.12479e-05
0.000324524
-0.000159326
-0.000246477
-0.000875694
-0.00949156
0.00448276
0.00588497
0.00226896
0.000503603
-0.000837282
-0.00193507
-6.61987e-05
-3.77591e-05
-0.000120873
0.000224771
0.000454687
-0.000334974
0.000355119
-0.000474872
0.000233757
0.00113505
0.000188051
-0.000267636
7.95288e-05
-0.000449455
0.000475845
8.83111e-05
-0.000114764
-0.000394901
0.00033425
0.000305192
-0.000243379
-3.41083e-05
0.000209577
3.83238e-05
-0.000213814
0.000506368
-0.000189033
9.78932e-05
-0.000415264
-0.000362694
-0.00032382
0.000313875
0.000372628
-0.00166536
0.00072267
0.00052181
0.000420813
0.00799209
0.00576021
-0.00169797
0.00011944
-2.01288e-05
2.83416e-05
-0.000127679
0.000584553
-0.00352694
0.00343812
-0.000495642
0.00023308
-0.000140614
-0.000149002
5.65173e-05
-0.000360394
-2.18205e-05
-2.52664e-05
0.000407462
0.000121277
-0.000348499
0.0002272
-0.000315153
0.000319765
0.000856001
-0.000860656
0.000232946
0.000163237
-0.000271747
-0.000124502
-0.000423952
0.000272855
0.000178983
-2.76818e-05
-0.00308358
9.79691e-05
0.00357026
-0.00515254
-0.00360789
0.00577729
0.00298348
0.000102674
6.72229e-06
0.00019664
-0.000306067
-0.00143223
-0.000198655
-0.00352143
-0.00115801
-6.48339e-05
-0.000616556
0.00183977
-0.000334538
-1.06803e-05
0.000188092
0.000157093
0.000325106
-0.000315512
-8.55862e-05
7.66975e-05
-7.52277e-05
0.000540994
0.000358854
-0.000824658
0.00124162
-0.00311475
-0.00121035
0.0005951
-0.000274289
-0.000223688
-9.69408e-05
-0.000193505
-0.000135904
0.000200909
0.000128475
3.77132e-05
2.5255e-05
-0.000122689
5.96923e-05
0.000381077
0.000419
-7.87475e-05
-0.00072137
0.00132652
-0.00330807
-0.00091354
0.00287495
0.000452483
-0.000468679
-0.000676033
0.00069219
0.00550512
-0.00269665
-0.00152411
-0.0012842
0.000197015
0.00170056
0.000576352
0.000221504
-0.000273492
-0.000524409
0.000231299
-0.000147333
6.7522e-05
-0.000151226
-9.96549e-05
1.92747e-07
9.94387e-05
0.000451441
-0.00043081
-0.000223979
0.00022914
8.25136e-05
-8.77111e-05
-0.000318757
-5.25572e-05
0.000147296
3.79703e-05
1.96592e-05
-5.39885e-05
-3.67101e-06
-2.69219e-05
-2.31861e-05
1.63389e-06
4.84396e-05
0.000261661
3.21218e-05
0.000106065
-0.000399897
0.000210516
-0.000966554
-0.00067434
0.00143047
-0.000327708
0.000211178
-5.39824e-05
0.000170453
-0.000222779
0.000275794
-0.000641821
0.000588908
0.00517468
-0.0108152
-0.000364763
0.00600672
-0.01114
-0.00938074
0.0111142
0.00940972
0.000112103
-0.000703907
-2.67685e-06
0.000594425
0.000338342
-0.000395488
0.00194826
0.0046975
-0.0164388
0.0159168
-0.000810655
-0.016061
0.00223416
8.46512e-06
5.11971e-05
-1.55274e-05
-4.40412e-05
-0.000119633
6.26721e-05
-0.000127593
0.000184524
0.000184471
0.000441622
-0.000195269
-0.000430898
-0.000116212
0.0001677
0.000154745
-0.000206265
3.84465e-05
-4.28778e-05
4.40621e-06
-1.33736e-05
0.000246204
-0.00024982
0.000474333
-0.000469531
-0.000674491
-0.000331811
-0.000937077
0.00194335
0.00020787
-0.000147861
-0.000173853
0.000114262
-8.49348e-05
0.000392703
0.000387684
-0.000695521
0.000289522
0.000378931
-0.000384782
-0.000283594
-5.41157e-05
0.000177933
0.000235216
-0.000359069
0.000195265
2.59682e-05
-0.000135729
-8.55434e-05
-0.000165977
0.000439217
-0.000779538
0.000506254
-4.7141e-05
-6.02034e-06
1.02529e-05
-0.000447988
-0.000328694
-0.000282467
0.00105976
0.000591401
-0.000560334
-0.00030246
0.000271426
9.37877e-05
-9.03495e-06
0.00024516
-0.000329936
-0.000383095
-0.000551861
-0.000506288
0.00144124
0.00825969
-0.00418519
-0.000396438
-0.00367729
7.18892e-05
-7.76916e-05
7.04336e-05
-6.46338e-05
0.000240836
-0.000305355
3.71105e-05
2.73567e-05
-5.85577e-05
0.000278795
-0.00015638
-6.36604e-05
-0.00063703
-0.00221129
0.00609085
-0.00324215
2.59273e-05
-0.000223744
5.2483e-05
0.000145326
0.000158807
0.000124188
-1.76313e-06
-0.000281206
6.09822e-05
2.05243e-05
-9.62092e-06
0.000303289
-0.00055628
0.00023749
1.56962e-05
0.00353445
0.0032522
-0.00895597
0.00217019
-0.000379383
0.000181822
0.000294051
-9.63623e-05
-0.000285405
0.000573967
-0.000334982
4.63574e-05
-0.00072341
-0.000309954
0.000407875
0.000626074
-0.000348302
-0.000669986
0.000846521
0.000171721
4.94574e-05
0.000294931
0.000446381
7.71711e-05
-0.000110225
-0.000413111
-0.000766966
-0.000256301
0.000295774
0.000727709
3.7445e-05
-1.05227e-05
-0.000104619
8.7773e-05
-0.000185452
0.000167195
-6.95478e-05
-0.00050392
-0.000186504
7.8299e-05
0.00061205
-1.97226e-06
-0.000102645
0.000104605
-0.00170323
-0.00480498
-0.0015119
0.000201577
0.000150117
0.000133128
-0.000484899
9.28682e-06
0.000126486
-0.000135789
0.00192468
-0.00225703
0.00303856
-0.00270501
5.737e-05
9.5133e-05
-0.000371
0.000218461
-0.00146364
-3.37878e-05
0.000406947
0.00109133
-0.000156249
0.000117582
-2.06585e-05
5.93011e-05
0.000425406
-0.000334571
4.87241e-05
-0.000139599
-0.000224507
0.000337242
-0.000112652
-0.000813174
0.000393702
0.000253458
-6.82568e-05
-0.000740591
0.000356949
0.000451894
-1.52106e-05
5.28692e-05
-3.76853e-05
-0.000107322
-0.000187348
0.000103578
0.000191165
3.25386e-05
-2.75843e-05
-0.000157579
0.000152725
-0.00478154
0.00276145
0.00441195
-0.00238992
0.00947171
-0.00159197
-0.00367253
-0.00420602
0.00206806
0.00807091
-0.00895641
-0.00117909
-0.000215249
0.000390984
-0.000212894
3.71286e-05
0.000239821
-3.13508e-05
5.59867e-05
-0.000264484
-0.00127089
0.000526421
0.000157506
0.000586924
0.000296303
0.000156151
-0.000700892
0.000248384
0.000103445
1.61929e-05
-1.30867e-05
-0.000106573
2.73635e-05
-2.29407e-05
7.02511e-06
-1.14697e-05
0.00600069
0.00387836
-0.000406331
0.000436264
0.00040693
0.00178829
-0.00263153
0.000823533
-0.000292701
-0.000363413
-0.000167483
-7.19419e-05
2.86158e-05
2.91612e-05
1.41355e-05
3.30952e-05
9.84017e-05
-0.000131505
8.83999e-05
4.76413e-05
-0.000117287
-1.84036e-05
-1.98041e-05
-1.4772e-05
2.97209e-05
-0.000123591
0.000108603
0.000947034
-0.00148204
0.00026032
0.000274982
-0.00168819
0.000613675
0.00107547
0.00206891
-0.0095053
-0.00343055
0.010868
-0.00112965
0.0013373
-0.00203833
0.00183084
0.000387875
0.000152172
-0.000314909
-0.000225189
0.0075164
0.00279859
-0.0114816
0.00116793
0.00251339
-0.000279319
-0.00223315
0.000663825
0.00215069
0.00121271
-0.00402549
-1.92471e-05
1.45465e-05
4.6874e-06
0.00605597
0.00663662
0.0103935
0.000587462
-0.00746734
-0.00351251
0.000124588
3.39175e-05
0.000907845
-0.00106639
0.000455353
0.000685321
-0.000849032
-0.000291649
-0.000163207
7.01566e-05
-9.24595e-05
0.000185486
0.0121587
-0.00628361
0.010905
-0.0167783
0.00333798
-0.00257156
0.000387476
-0.00115384
-0.00545032
0.00767907
-0.00241393
-0.000974971
-0.000139677
-0.00192427
0.00303903
0.00137389
0.00139533
0.00200257
-0.00477055
-0.000162689
-0.000157899
-0.000212772
0.000534182
-0.000405477
0.00290246
-0.010854
0.00835797
0.0106486
0.00431025
0.00775947
0.00213139
-0.0102955
0.000527321
4.72666e-05
-3.02767e-05
-0.000544358
-0.02563
0.0160845
0.0101504
0.000471433
1.38897e-06
3.44438e-06
-4.15752e-06
-6.9332e-07
0.00297918
-0.00380276
0.000517438
0.000306323
8.85676e-05
-0.00016911
0.000693827
0.000466206
-0.000429036
-0.000731054
0.000491629
0.000293937
7.01209e-05
-0.000855713
0.00405005
-0.00121117
-0.00176805
-0.00107027
0.000141192
-6.54e-05
-8.80244e-05
1.21819e-05
0.00135635
-0.00201245
0.000255192
0.000401184
0.000188772
-0.000103753
0.000193832
-0.000278926
2.79781e-06
-7.41272e-06
5.98663e-06
0.00126461
0.0014716
-0.00211948
-0.000615706
-4.55875e-05
-9.19695e-05
-2.26308e-05
0.000160188
0.00073988
0.00119244
-0.000948654
-0.00098369
0.00013775
-0.000175228
-9.86742e-05
0.000136121
-0.000122907
-1.65269e-05
9.7786e-05
4.16133e-05
-1.96554e-06
-4.57076e-06
0.000144263
-0.000137759
0.000274728
0.000913291
-0.000515833
-0.000671627
-0.0104832
0.0017499
-0.000394118
0.0101029
0.000931234
-0.000322535
6.25439e-05
-0.000671265
0.000852096
2.06339e-05
-0.000256673
-0.000616124
-6.06429e-05
-0.000281848
0.000230042
0.0001124
-0.000130688
0.00030799
0.000130265
-0.000307627
2.65837e-10
3.12138e-06
8.62359e-06
-1.17711e-05
5.01161e-07
1.15592e-05
-1.20775e-05
-3.4121e-05
3.01533e-05
-1.8585e-05
2.2514e-05
0.00250197
-0.00363573
-0.00283436
0.00396854
0.000277065
-0.000656206
-0.000199962
0.00057906
-0.000456025
0.00104853
0.000120357
-0.000712865
-0.000156027
0.000118909
-0.000181913
0.000218979
-0.000199401
-0.000468753
0.000852991
-0.000184904
-3.76896e-07
5.35999e-05
-5.07637e-05
-2.46835e-06
-0.00012468
-2.03655e-05
0.00016269
-1.76711e-05
0.000469166
0.00291546
7.30732e-05
-0.00345645
0.000185028
0.00016441
-0.000505524
0.00104525
0.00272259
-0.00309673
-0.000670126
1.84312e-05
-5.04781e-05
0.000146962
-0.000114962
0.00163943
-0.000718815
-0.000933369
1.29213e-05
0.0138919
-0.0168021
0.00753007
-0.00275229
-0.00265838
0.00205366
0.00216112
-0.0015562
0.000455891
-0.00046018
4.27023e-06
4.77273e-05
2.20577e-06
-5.76556e-06
-4.41803e-05
0.000206857
-0.000162685
0.000140373
-0.000184565
-0.000182909
-2.24453e-05
5.77959e-05
0.000147536
0.000440968
4.58615e-07
-7.18046e-05
-0.000369443
3.98064e-05
7.89379e-06
-0.00307222
0.00243879
0.00106116
-0.00042631
-3.93946e-06
5.03938e-05
-4.487e-05
-1.62491e-06
1.96024e-05
7.14137e-06
-2.67502e-05
-8.70639e-05
-8.40748e-05
2.14176e-05
0.000149681
4.08406e-05
-8.61808e-06
-3.61959e-05
0.000263366
-0.000336381
-0.00022038
0.000293365
-8.95066e-05
0.000368599
-0.000101139
-0.000178029
-0.00098184
-0.000491542
0.0011355
0.0003379
9.57161e-05
1.78238e-05
-0.000450872
0.000337307
0.000379561
-0.00030925
8.27245e-05
-0.000153068
-0.000107812
-1.19689e-05
0.000125377
-5.68689e-06
-0.000172791
-0.00011771
8.73425e-05
0.000203133
3.66504e-05
-3.59393e-05
0.000341144
0.000534796
-0.00044613
-0.000429839
0.000174123
1.58334e-05
-1.60595e-05
-0.000173934
-0.003774
0.000886319
0.00309536
-0.000205317
9.50239e-06
0.000250929
-9.37751e-05
-0.000166708
3.77999e-05
-8.35271e-06
-1.00489e-05
1.0857e-05
0.000122788
-0.000123621
-0.000107705
8.86157e-06
8.87723e-05
-7.81922e-05
-0.00013065
0.000267579
-5.84694e-05
-0.000232563
0.00013665
-0.000323729
0.000419602
0.000175355
-0.00017829
-2.23236e-05
2.52223e-05
-0.000158469
4.46764e-05
0.000309215
-0.000195473
-0.00399439
-0.00139632
-0.00873312
0.0142362
-0.000553518
0.00169863
-0.000334573
-0.000810603
0.000375538
-0.000122569
-0.000183881
-6.91319e-05
0.000202389
-0.000337677
-8.52937e-05
0.000220531
-0.000282477
-0.000525136
0.000147373
0.000660225
0.0059729
-0.00419074
-0.00775945
0.00597841
-0.000181714
-5.57348e-05
0.000237417
-6.38657e-05
0.000126568
-6.26648e-05
-0.00012956
0.000193053
-0.000123881
6.08356e-05
7.42799e-06
-0.000776735
-0.000196398
0.000965653
0.00112801
-0.00070599
-0.000302661
-0.000118559
-5.08405e-05
-0.00239701
-0.00241461
0.00486297
-0.00166215
0.000172822
0.000754741
0.000735108
-0.000104079
-8.02557e-05
0.00018431
0.000278132
7.07891e-05
-0.000247776
-0.000101172
0.000349354
8.70158e-05
7.05077e-05
-0.000506605
9.74347e-05
8.33824e-05
6.60561e-05
-0.000246864
0.000132954
-0.00010142
-0.000192465
0.00016102
0.00111847
-0.000467038
0.000250598
-0.000902026
-0.00020038
0.000299667
0.00023384
-0.000333176
0.000160931
-1.35742e-05
-0.000146729
0.00121858
-0.000164297
6.41838e-05
-0.00220986
0.00132537
0.00127571
-0.00039024
5.22136e-06
-2.92365e-06
-2.3184e-06
-8.22478e-06
3.79995e-06
4.40591e-06
-1.83591e-05
2.96892e-05
-4.0217e-05
2.88578e-05
0.000139517
-3.13032e-06
-0.000103839
-3.25626e-05
0.000617537
0.000889941
-0.00107315
-0.00043414
0.00063438
-0.000454841
-0.000334866
0.000155802
2.21202e-06
-8.5794e-05
5.40921e-06
7.81595e-05
-0.000414639
4.68226e-05
0.000367799
5.28167e-06
1.26935e-06
-6.5611e-06
0.00049353
0.00115109
-0.00118878
-0.000455913
0.000414705
-3.16003e-05
-0.000104998
-0.00108812
0.000945699
-0.000324597
-0.000564689
0.000367191
0.00144441
-0.00124694
1.96765e-05
0.000183636
-0.000275143
7.17732e-05
0.000368256
-0.000310191
-0.000190491
0.000132369
0.000993158
0.00100416
-0.00149271
-0.000504636
0.00350268
0.00158155
-0.00210338
-0.00298063
0.000123435
-0.000249612
0.00012618
8.89691e-05
-0.000146383
4.91002e-05
8.25906e-06
9.30146e-05
6.33808e-05
5.383e-05
-0.000210261
0.000374205
-0.000377295
0.000610419
-0.000607377
8.90262e-05
-0.00115485
-9.43291e-05
0.00116016
-0.0002736
0.000119621
-6.2883e-05
0.00021682
0.00011323
-0.000325044
-0.000451848
0.000663581
-0.000257269
0.000203573
2.77901e-05
2.58609e-05
0.000113319
-0.000512255
0.000117808
0.000281077
0.000545691
0.00252272
-0.00118351
-0.00188234
4.03024e-06
-0.00017003
-1.05672e-05
0.000176545
0.000678659
-0.000153329
-0.000417615
-0.000107499
-0.000140965
-3.13663e-05
2.36699e-05
0.000148645
0.000173165
-0.000162666
-6.48817e-06
1.84681e-05
-2.03143e-05
-0.000526442
0.00052823
-0.000493148
6.75892e-05
0.000901756
-0.000476225
0.00010608
0.000175034
-0.000172717
-0.000108291
-7.06899e-06
-1.93495e-05
9.25781e-06
1.71371e-05
-0.000358917
0.000280042
-3.4991e-05
0.000113839
0.000404781
-0.000350644
5.19143e-05
-0.000106079
-0.000110142
7.40746e-06
-7.22242e-05
0.000174914
4.54326e-05
1.22046e-05
0.000168716
-0.000226403
2.09389e-05
-0.000172952
0.000151994
5.54123e-06
-1.00672e-05
-2.57025e-06
0.000161664
1.82261e-05
-0.00015897
-3.87661e-05
0.000218564
-0.00013418
-4.56402e-05
-7.82952e-05
-1.10743e-05
8.93501e-05
-0.000683753
0.000348824
0.000225463
0.000109366
2.17079e-05
-0.00014968
0.000151227
-2.32892e-05
-0.000501626
0.000428792
-0.00112661
0.00119954
-3.70742e-05
-0.000483052
0.000795778
-0.000275688
-0.00334294
-0.00131727
0.0080049
-0.000519348
-0.000128829
-3.56754e-05
0.000183867
0.000460131
-0.000267575
-0.000376434
-8.10842e-05
5.214e-05
-0.000118798
0.00014773
-0.000706609
-2.56895e-05
1.35264e-05
0.000719519
-0.000292695
0.00031941
0.00021999
-0.000246733
1.08845e-05
-5.37148e-06
1.67609e-05
-2.29697e-05
2.04813e-05
-1.4325e-05
-4.54551e-05
-0.000161267
0.000155257
5.15583e-05
0.00135346
-0.000376094
-0.000142537
-0.000834864
-3.69256e-05
0.000116963
-8.00631e-05
-5.4223e-05
1.79501e-05
3.6251e-05
-0.000169597
-9.64883e-05
6.86117e-06
0.000259185
1.65999e-05
8.66238e-05
-9.06872e-05
-1.25629e-05
-4.59482e-05
3.44826e-05
4.57109e-05
-3.41761e-05
-0.000264449
-2.80021e-05
4.97206e-05
0.00024269
-0.0030911
7.84907e-05
-0.00777146
0.0107864
-0.000118012
0.000373189
-0.000217824
-3.73963e-05
-2.77658e-05
-0.00074442
0.000544226
0.000227928
-2.1479e-05
3.71775e-06
-5.12705e-05
6.90248e-05
-0.000274129
3.97633e-05
0.00023431
-4.96361e-05
0.0001944
-0.000181733
6.77878e-05
0.000172844
-1.28512e-05
-0.000227836
8.91576e-05
-9.06099e-05
-5.32122e-05
5.46454e-05
1.9134e-05
-3.59955e-06
-1.55554e-05
-6.49966e-05
0.000434515
-0.000140312
-0.000229241
-9.58054e-06
6.20682e-05
2.42662e-05
-7.67668e-05
0.000124822
-0.000317655
0.000129271
6.35671e-05
-9.91127e-05
0.000313723
-3.13869e-05
-0.000183235
-0.00012469
-4.09893e-05
0.000134547
3.11062e-05
-3.44185e-05
8.0927e-05
-9.20959e-05
0.000124391
-0.000104061
1.35226e-06
0.000104457
3.78432e-05
-0.000150932
8.58884e-06
-7.86819e-05
0.000215368
-1.23308e-05
0.000276608
-0.00261659
0.00259666
-0.000256199
-0.000222722
8.73663e-05
-1.62436e-05
0.000152054
0.000306626
7.29903e-05
-0.000380995
1.3503e-06
-0.000219082
-3.58536e-05
0.000160231
9.4696e-05
3.36159e-05
3.8141e-05
-0.000218145
0.00014634
-0.000113396
-7.14005e-06
0.000120479
0.00651705
-0.00819164
0.000926436
0.000783633
0.000118187
-0.000115677
0.000117897
-0.00012039
0.001412
0.000429289
-0.00306792
0.00122682
0.000948113
0.000322692
-0.0025313
0.00126079
-1.11273e-05
4.11694e-05
-1.54383e-05
-1.46182e-05
0.000107068
-0.000947106
0.000337853
0.000502127
0.000344177
-0.000128209
0.000109934
-0.000325984
6.99277e-05
-0.000240458
-0.000126527
0.000297014
0.000327181
0.000311721
-0.000723913
0.0017777
0.00139843
-0.00176407
3.10485e-05
-7.59806e-06
-3.45956e-05
0.000308878
-6.83003e-05
-0.000147453
-9.31613e-05
-0.000535049
0.000410931
0.000279949
-0.000155828
0.000278478
-0.000475645
0.00197484
0.00100048
-0.000176327
-0.000261457
-0.000562736
-0.00011675
9.89104e-05
-9.56284e-05
-0.000137097
9.31698e-06
-5.67379e-05
0.000184737
-9.47997e-05
0.000241032
-0.000144816
-1.42621e-06
-5.15728e-05
2.23172e-05
6.30097e-05
-3.37896e-05
-0.000287979
0.000517167
-0.000585049
0.000355912
-0.000413474
-0.0001385
0.000356783
0.000195181
3.28535e-05
-3.81589e-05
-5.26961e-05
5.79964e-05
0.00112296
-0.000234764
0.000684593
-0.00157284
4.41228e-06
0.000117254
-8.88184e-05
-0.000228781
-0.000183601
0.000101694
0.000310649
-0.000151914
0.000113459
-0.000601967
0.000640385
0.000609822
-0.00115518
3.20035e-05
0.000513335
-7.00805e-05
-4.18701e-05
0.000111918
-0.000188719
-6.15848e-05
0.000254706
0.000159316
-0.000130314
0.000580801
-0.000102621
0.00021865
-0.000938543
0.000822476
0.000241877
1.10199e-05
-0.000252906
-0.00060642
-0.000214489
0.000238385
0.000582463
0.0069179
-0.00434618
-0.00876982
0.00620747
0.000110174
3.89788e-05
-0.000111722
-3.74831e-05
4.02549e-05
8.86404e-05
-0.000128915
-0.000603881
0.000595701
8.14971e-06
0.0103355
-0.0053081
-0.0055466
0.000662761
-0.000597977
0.000383739
-0.00014373
0.000357889
-1.02026e-05
-2.66146e-05
3.67929e-05
-0.00082168
-0.000126073
0.000944996
2.70332e-06
0.000632029
0.000149037
-0.000258713
-0.000522181
0.00599083
-0.019649
0.0303036
0.00358282
-0.0040113
-0.010831
0.00434636
0.0106127
0.000441318
0.00191889
-0.000847294
-0.00151284
0.000758478
0.000115594
-0.000874088
4.16655e-05
-0.000995522
0.000979879
-2.60615e-05
0.000106269
0.00118954
-0.00119746
-9.83867e-05
0.000736505
-0.000804771
-6.93566e-05
0.000137596
-0.000206852
-0.000323685
0.000530391
9.95145e-08
-0.000504399
0.000637423
0.000366394
-0.000499345
-0.000205777
0.00014526
8.64361e-05
-0.000322267
-0.000130156
-0.000114161
0.000566766
-0.000617094
3.26442e-05
0.000584424
-0.000117455
0.000690599
0.000130006
-0.000703184
-0.000108532
-0.000911368
0.000701477
0.000318382
5.84588e-05
8.33216e-05
-9.93991e-05
0.000562754
-0.000777106
0.000972801
0.000246167
0.000813265
0.000526507
-0.0015857
0.000712007
0.000835682
-0.00169048
0.000142794
0.000195335
-0.000169075
0.000196923
-0.000223235
0.000574266
0.000829093
-0.00140309
0.00418989
0.00511418
-0.0123591
0.00825648
0.00287028
-0.00160617
-0.00341603
0.00214134
0.00105963
0.000415347
-0.00130023
-0.000174791
0.000376172
-0.000697169
-0.000191498
0.000512438
6.49476e-05
-0.000286591
0.000204207
1.73961e-05
-0.000278568
-0.00114363
-1.28263e-05
0.00143502
0.00444064
-0.00598785
0.00645118
-0.00484473
-0.000232991
0.000516352
-0.000399753
0.000116358
0.00156761
-0.000778167
-0.000538863
0.000740958
-0.00151832
0.000403964
0.000373344
-0.000333145
9.53898e-05
2.575e-05
0.000211956
0.00561003
-0.0273284
0.00300056
0.0188241
0.000162868
7.32577e-05
-0.00062974
0.000393558
-0.00173027
-0.000264586
0.000876532
0.00111834
-0.00193168
0.00273012
-0.00648565
0.00568802
3.15864e-05
-2.6033e-05
-3.02389e-05
2.46512e-05
-0.000314496
-0.00207869
0.00125839
0.00113477
-0.000157674
-0.000193332
1.21768e-05
0.000338745
-0.000125213
-0.000144033
-7.8209e-06
0.00027696
0.000329547
4.99351e-05
-0.000301997
-7.74878e-05
0.000570227
0.000142932
-0.000383614
-0.000200338
-1.11936e-05
-6.86506e-05
0.000280119
3.74509e-05
0.000101036
5.76558e-05
-0.000196219
0.000133067
-0.000316994
-0.000111844
0.0002957
0.000676703
-0.000320314
-0.000557056
0.000200629
-4.11157e-05
4.34747e-05
-2.41857e-06
-0.00138315
0.00119398
-0.000212039
0.000401166
-0.000173944
-0.000187344
0.00103795
-0.000167282
0.000101595
0.000103044
9.9792e-05
-0.00016931
-3.84391e-05
0.000107932
1.60348e-05
0.00019329
0.000170198
0.000551901
-0.000729946
-0.000142299
-0.000191894
0.00016748
-0.000105571
0.000129961
-7.56868e-05
0.000348553
-0.000272816
-0.000813027
0.000155194
0.000531819
0.000127431
-0.000118264
-4.35986e-05
0.000153752
8.05795e-06
-0.000134372
-4.03986e-05
-8.85691e-05
0.000263303
-2.49871e-05
-0.000281035
-0.000497217
0.000803209
3.13753e-05
2.91382e-05
-6.05396e-05
5.51707e-05
-0.000122428
6.7232e-05
-7.09332e-05
-1.54085e-05
8.63062e-05
0.000185011
-2.4853e-05
-0.000160192
0.000240589
-0.000270059
-0.000193342
0.000222751
-0.000519761
-7.75035e-05
-3.16452e-05
0.000628909
0.000859538
-0.000401765
-0.00178171
0.00132499
-0.000198368
-0.000125163
-1.04066e-05
0.000333908
-0.000290005
0.000667929
4.46807e-05
0.000393321
-0.000754226
0.000316793
-0.000797813
-1.96154e-05
0.000220486
0.000597128
-5.16267e-05
-0.000176194
6.10502e-05
0.000166752
8.7317e-05
4.7078e-05
-4.07576e-05
-9.3666e-05
2.11726e-05
2.08352e-05
-4.20368e-05
1.75165e-05
0.000389101
-0.000202698
-0.000203838
-9.42615e-05
-3.08167e-05
0.00024328
-8.19095e-05
0.000137053
0.00277105
0.00561728
-0.00836539
-0.000221072
-0.000312716
0.000477388
5.6318e-05
0.000221159
-0.00027775
-0.00010497
0.000161525
0.000123687
0.000205802
-0.000117463
-0.000212061
0.000199635
-0.00057708
0.000327724
4.97052e-05
0.00152551
-0.0104695
0.00703305
0.00258851
0.000735144
-0.000693509
-4.19876e-05
-0.000289505
1.43103e-05
0.000317107
7.82311e-06
0.000255872
-3.84045e-06
-0.000259874
3.5266e-05
4.12205e-05
0.000256102
-0.000332609
-0.000235366
0.000274512
-0.000155639
0.000116588
0.00359588
0.00151702
0.00385603
-0.00928119
0.000333209
-0.000504504
-0.000165094
0.000336264
0.000290733
-9.72429e-07
-2.64805e-05
0.000744832
-3.9773e-05
-0.00100619
0.00030106
-0.000146001
-4.808e-05
0.000222223
-2.81702e-05
8.64303e-05
4.236e-05
-8.81174e-05
-4.06932e-05
0.000329093
-0.000287938
-3.33539e-05
0.000349601
-5.93386e-05
-0.000288804
-1.4886e-06
-0.000135987
0.000179957
0.000147431
-0.000191462
0.000294019
5.99562e-05
-0.000466126
0.000112199
0.000274651
-1.87988e-05
-1.90619e-05
0.00011538
6.15518e-05
-0.000157893
0.000394116
-0.000573058
0.000548285
-0.000369407
-0.000795941
2.45623e-05
-4.80106e-05
0.000819331
-5.38074e-05
0.000157879
-0.000274545
0.000170652
-0.00209265
0.000379839
0.00137936
0.000334164
0.000701071
0.00201279
-0.00026239
-0.00245145
-0.000159249
-2.6756e-05
-5.1028e-05
0.000237212
-0.000614845
0.000604679
4.29136e-05
-3.27769e-05
8.33803e-06
6.20526e-05
-7.0424e-05
0.000313249
-7.10976e-05
8.69193e-05
7.04895e-06
0.000148841
-0.00021252
5.65808e-05
1.61497e-05
5.1318e-06
-2.12993e-05
-0.000349669
-8.82071e-05
0.00033189
0.000105889
1.92561e-05
-3.9772e-05
-6.32975e-06
2.68773e-05
-8.6966e-05
-0.000147442
7.66849e-05
-0.000793327
-7.23366e-05
-0.00116594
0.00203159
-2.3111e-05
-9.98248e-05
0.00243077
-0.000228338
-5.81863e-05
-0.00214421
-0.00973836
0.00369766
0.0075768
-0.00153311
-2.7123e-05
-4.63802e-06
5.1051e-05
0.000363977
-0.00014966
-0.00015849
-5.59142e-05
-0.000205854
6.97712e-05
-0.000598425
0.000734474
-0.000756082
0.00165059
4.34815e-05
-0.000938053
0.000369763
0.000435906
-0.000658572
-0.000147156
0.000214479
-4.63775e-05
-0.000168159
0.000110849
-0.000195347
0.000542201
-0.000457731
8.41778e-05
-7.55456e-05
-8.63266e-05
7.76742e-05
1.51941e-05
-5.56973e-06
-4.07555e-07
-9.17518e-06
4.92321e-05
0.000148668
2.54234e-05
-1.01875e-05
0.000338104
-0.000103119
-0.000861366
0.000626343
0.000752734
-0.000565624
-0.00020672
1.95486e-05
-0.000632344
-0.000696
0.00104911
0.000279194
0.000131875
0.000788573
5.7685e-05
-0.000978192
0.00149561
-0.000743871
-0.00105211
0.000300292
0.000514889
0.000179649
6.89572e-05
-0.000763545
0.000307237
1.33267e-05
5.92546e-05
-0.000379927
0.000890064
4.58808e-06
5.27128e-05
-0.000947403
-0.000181528
-0.00123155
-2.85174e-05
0.00144155
-1.66879e-06
0.000218309
-0.000280931
-4.73414e-05
0.000109945
-0.000736172
0.000480918
0.000376175
-0.000120582
-0.000604286
0.000395546
0.000385145
-0.000176496
-0.0012192
-0.000159446
0.000643011
0.00018142
0.000300873
7.5974e-06
-0.00048969
-0.000133529
0.00011403
-8.81353e-05
0.000107588
9.45717e-05
0.000148057
-0.000409136
0.000166425
0.000993856
-0.00159934
3.44253e-05
0.000570988
0.0237796
0.0114778
-0.0127073
-0.0085555
3.82858e-05
-5.35542e-05
8.19466e-05
-6.67066e-05
1.10668e-05
-2.55214e-05
-1.07942e-05
2.52145e-05
-0.000312162
0.0013589
-0.000494217
-0.000552564
0.000440828
-0.000316243
-0.000123237
-1.39212e-06
-0.000141852
-0.000103994
-8.27303e-06
0.000254068
-4.26862e-05
0.000174875
0.000100872
-0.000233092
-7.60658e-05
-1.0484e-05
0.000362126
-0.000275606
0.00138834
-0.000570637
0.000177789
-0.000995532
8.11538e-07
-5.66288e-06
-2.58845e-05
3.07013e-05
-1.30439e-05
-1.82143e-05
-0.000335454
8.68653e-05
0.000282731
-3.42044e-05
0.000135574
-0.000343966
0.000696726
-0.000488373
0.000268578
0.000376309
-0.0004726
-0.000172361
0.000160641
-4.02101e-05
-3.02439e-06
-0.000117417