/*--------------------------------*- C++ -*----------------------------------*\
| =========                 |                                                 |
| \\      /  F ield         | OpenFOAM: The Open Source CFD Toolbox           |
|  \\    /   O peration     | Version:  v2012                                 |
|   \\  /    A nd           | Website:  www.openfoam.com                      |
|    \\/     M anipulation  |                                                 |
\*---------------------------------------------------------------------------*/
FoamFile
{
    version     2.0;
    format      ascii;
    class       volScalarField;
    location    "1.5";
    object      Qdot;
}
// * * * * * * * * * * * * * * * * * * * * * * * * * * * * * * * * * * * * * //

dimensions      [1 -1 -3 0 0 0 0];


internalField   nonuniform List<scalar> 
108993
(
0
9.08042e-242
8.94227e-40
8.76294e-45
9.87952e-65
0
9.79267e-238
2.16688e-91
0.0108605
0
0
2.36892e-68
5.92113e-49
0
2.95409e-126
2.1383e-90
0
7.27253e-146
0
0
3.61235e-99
4.72097e-16
3.36837e-275
0
2.28554e-50
0
86.1054
5.67815e-285
0
0
224116
0
3.15659
3.64772e-105
0
0
30.6035
0
8.08021e-207
0
0
1.4596e-20
0
6.88492e-45
0
8.99241e-227
0.55597
0
0
0
0.000420014
2.45488e-172
1.18371e-240
0.000100389
1.24778e-145
8.98605e-100
0.000402232
0
7.51047e-35
6.21289e-47
0
7.18605e-39
0
0
8.09665e-46
0
4.53247e-51
1.75401e-44
0
9.20365e-147
0
0
1.00073e-58
9.27392e-49
0
971081
0
1.00148e-124
6.83829e-09
2.1258e-51
0
0
1.09269e-24
4.65552e-58
1.44496e-145
4.98732e-113
0
0
4.40305e-59
0
0
408489
3.742e-53
0
0
3.38273e-100
167598
0
238674
0
0
0
2.41983e-102
0
7.96417e-54
9.61905e-54
0
1.78506e-26
4.43119e-27
1.59213e-226
1.17316e-177
3.68121e-50
0
0
1.23221e-25
1.16451e-235
0
2.11612e-39
0
478933
7.97146e-135
0
1.13337e-261
4.08795e-44
0
0
0
7.41374e-62
1.26888e-19
9.12671e-22
1.72629e-90
3.83738e-23
0
1.14182e-152
3.04572e-24
1.34215e-27
5.24886e-21
7.3994e-34
0
0
3.85852e-40
498.791
0
2.01883e-21
3.42589e-20
1.03127e-62
9.0198e-48
5.86657e-261
3.10986e-42
4.17804e-192
3.51752e-189
0
2.60424e-237
0
5.43883e-24
3.10971e-208
1.21244e-79
8.68133e-10
0.484522
0
9.7456e-187
0.0171928
677789
1.58228e-100
0
7.51972e-187
0
0
0
2.00411e-33
7.16511e-40
1.42323e-92
0
1.01752e-46
0
0
6.00687e-178
0
4.98807e-25
0
0
1.49882e-19
0
2.57045e-44
2.44272e-107
8.72502e-76
9.26027e-18
0
0
0
1.49535e-52
6.79917e-10
0
0
1.05486e-29
1.74145e-45
5.07486e-255
0
3.82013e-47
8.63848e-43
1.14773e-66
1.14279e-181
1.2534e-103
1.02606e-12
2.01152e-232
0
1.06989e-10
0
7.30051e-24
3.15113e-186
0
0
7.23519e-176
5.81527e-265
4.21937e-185
3.34252e-54
0
4.22743e-05
3.27085e-07
0.0157773
0
7.255e-196
4.8951e-68
3.47422e-182
0
0
3.34025e-08
1.56625e-12
0
0
3.06689e-187
0
0
0
1.11163e-09
6.09401e-07
0.00303844
7.37607e-28
2.38952e-202
1.82098e-05
0.00348415
3.83406e-13
0
6.33792e-07
0
3.67413e-84
1.20024e-265
1.02928e-256
0
1.97724e-17
2.43132e+06
3.67229e-37
1.29921e-08
0
7.61503e-13
0
2.02153e-12
1.2617e-54
2939.64
0
6.3297e-07
0
0
1.78225e-100
9.0533e-18
0
2.52874e-08
1.00514e-306
0
1.52361e-20
3.6103e-77
2.85584e-31
1.97478e-282
0
0
7.86094e-26
15226.5
0
0
1.07467e-273
0
1.56362e-222
1.48997e-219
0
3.60168e-11
4.47675e-90
0
0
3.9655e-65
2.753e-280
1.4437e-134
0.0655867
2.8542e-273
0.039233
0
0
1.25613e+06
3.79866e-05
0
4.31164e-84
0
0
1.40611e-56
0
9.40121e-12
0
0
0
0
0
0
0
0
3.74101e-75
0
5.94228e-216
0
7.80158e-108
0
5.52512e-11
0
0
0
0
0
0
7.33214e-192
1.73919e-218
68.6511
2.48394e-46
0
0
1.71384e-128
0.00215162
0
4.18436e-90
2.32508e-18
0
1.28226e-20
4.76012e-11
1.02335e-11
1.12013e-247
1.48558e-286
0
0
0
1.70282e-20
0
7.99745e-20
5.43584e-22
9.52964e-08
0
0
0
0
3.32012e-43
1.1512e-37
2.32789e-246
0
0
8.34584e-74
0
1.07345e-18
3.57204e-18
0
0
4.41839e-15
9.61174e-11
0
1.02395e-182
2.355e-210
0
1.21178e-20
0
1.02337e-267
0
0
1.4821e-15
0
5.56707e-51
0
3.99478e-216
0
1.85888e-94
0
0
0
5.24548e-150
0
0
0
0
8.70956e-218
0
0
0
5.10329e-186
1.2258e-17
6.15519e-103
0.0014526
0
9.34282e-264
5.37741e-265
9.7683e-15
0
4.22477e-298
0
5.65628e-58
3.01288e-47
1.38524e-194
2.17759e-141
7.90448e-280
0
0
3.77496e-84
0.0375177
0
2.90925e-149
2.5817e-291
0
2.17633e-191
1.81399e-242
3.49034e-191
0
1.10258e-61
0
0
0
0
7.59815e-80
1.76748e-182
0
2.22065e-185
1.90323e-19
0
3.02681e-142
0
0
0
55.4552
7.3788e-112
1.44798e-11
2.6994e-21
0
1.08571e-164
9.18804e-205
6.40946e-215
3.76673e-169
1.68798e-13
0
0
0
1.95125e-15
0
0
1.06815e-112
0
0
0
2.20875e-21
0
2.16734e-38
0
4.32568e-202
9.18237e-136
1.5266e-28
0
0
2.94852e-30
9.81934e-38
0
1.54724e-62
2.90257
1.35656e-223
0
0
6046.87
0
5.58705e-292
0
1.1007e-46
89950.5
49.6923
4.12701e-15
2.94691e-59
5.32398e-35
3.25301e-31
1.39602e-32
0
4.14582e-100
0
1.66194e-73
0
2.06485e-37
3.62965e-106
0
9.29117e-59
9.4742e-16
1.2736e-19
0
2.07243e-29
53512.8
0
7.24175e-23
8.86317e-132
0
3.31531e-18
3486.53
2.3369e-156
1.96741e-18
0
0
1.66594e+06
0
9.73588e-17
1.22063e-12
0
5.36842e-15
0
0
0
0
2.72701e-221
0
0
8.65906e-119
0
1.38681e-21
2.07597e-121
5.25931e-262
0
0
3.36328e-116
0
1.45107e-60
2.31208e-23
0
2.23466e-92
7.2942e-117
0
1.1497e-79
0
4.84551e-80
0
0
3.61147e-21
0
1.51678e-118
4.8102e-38
2.15869e-08
0
0
0
0
0
2.67741e-77
219.738
0
1.83988e-171
1.74691e-275
0
2.14291e+06
3.92815e-36
0
7.93335e-187
2.50298e-240
7.17835e-91
8944.71
1.98398e-248
0
0
0
0
2.12281e-183
0
0
0
1.00928e-189
3.30481e-195
3.56601e-200
0
1.92388e-77
1.38089e-26
0
1.8141e-94
1.03896e-119
0
1.18825e-182
0
0
0
5.8156e-105
2.89571e-280
1.22297e-18
0
8.3614e-15
0.00346592
3.51076e-107
1.61804e-238
0
1.15048e-22
5.57075e-68
0
1.94294e-103
0
3.8921e-112
0
7.12431e-109
1.43187e-96
1.23981e-48
1.3569e-128
1.53892e-52
0
4.4845e-46
0
1.45607e-25
3.02739e-72
8.19711e-110
0
2.04727e-07
6.11368e-166
6.97597e-06
1.5925e-72
0
1.62521e-262
3.65227e-41
71082.6
0
0
4.41838e-84
0
3.668e-267
4.47476e-244
6.53755e-167
5.33955e-79
0
1.37052e-103
2.57674e-190
1.75375e-112
0
9.78772e-158
0
9.99742e-19
0
0.0607633
7.8588e-81
6.69851e-84
2.51985e-190
0
2.22272e-81
3.11607e-79
0
6.31556e-279
7.03309e-219
0
0
5.45869e-110
4.84347e-216
4.01583e-159
6.5473e-214
0
0
3.77072e-100
2.38493
0
0
6.47678e-304
4.93794e-96
0
3.71244e-286
2.44693e-100
0
3.75466e-185
0
4.25676e-216
1.55256e-43
1.07945e-184
0
0
1.553e-248
0
9.90142e-184
3.03812e-126
0
4.87173e-274
0
0
2.87118e-155
0
0
0
2.22463e-27
0
6.883e-155
1.49701e-308
1.44327e-144
0
0
0
0
4.85658e-193
0.583701
0
0
1.36235e-105
1.39658e-80
1.4773e-135
1.73853e-267
0.000453724
0
0
0
0
9.46878e-61
8.50762e-179
2.62558e-57
0
1.92444e-111
0
0
0
2.17882e-75
0
9.50587e-85
1.73869e-130
7.28819e-85
0
0
4.42665e-253
0
1.21989e-177
1.20198e-76
3.28058e-92
6.28577e-82
5.96844e-82
1.52809e-80
0
0
7.23518e-29
0
0
1.13075e-85
0
2.17676e-242
3.39318e-73
0
7.79428e-75
1.7406e-73
4.54156e-77
0
5.76403e-85
0
0
4.25538e-70
0
0
0
5.02308e-77
1.92817e-106
0
4.25615e-67
0
4.14935e-70
4.40747e-60
0
0
0
0
0
3.11677e-15
7.8584e-62
0
1.01786e-18
1.05921e-237
0
0
0
0
0
0
2.96674e-25
7.99966e-111
0
0
3.28436e-215
2.54861e-289
3.00493e-203
0
1.16815e-17
1.42763e-151
1.35183e-06
0
3.63876e-07
6.09993e-44
1.02529e-209
0
0
4.72672e-248
0
3.65597e-69
8.83303e-206
4.07135e-102
0
0
1.33345e-95
931176
4.62881e-82
0
6.22486e-32
5.01259e-14
7.30016e-50
0
2.04598e-14
2.32412e-149
4.79147e-32
0
0
0
1.06513e-142
0
5.97868e-152
1.39708e-136
4.67613e-124
0
0
0
0
0
0
2.53047e-257
0
0
0
1.28253e-45
1.51276e-137
0
1.61903e-52
0
1.79503e-197
1.25644e-54
0
0
0
6.07801e-66
3.63983e-312
3.66804e-136
0
0
2.85692e-178
4.3698e-57
2.12999e-175
1.46759e-62
4.31358e-181
1.12812e-59
0
0
0
0
0
2.96039e-299
1.20413e-302
0
0
0
0
0
2.71813e-72
2.05839e-109
6.96038e-94
1.22678e-98
0
2.16676e-18
1.81293e-100
2.23421e-206
3.7584e-26
0
0
2.22102e-180
0
0
9.96271e-208
1.02824e-199
0
3.95352e-160
1.20952e-246
9.8512e-129
0
3.29145e-128
4.91665e-238
0
1.7694e-30
2.8259e-08
2.45553e-86
2.12477e-111
4.28225e-210
0
3.24473e-71
5.8848e-110
0
0
5.96353e-127
2.24977e-203
1.96645e-287
9.23628e-128
0
0
2.81659e-136
0
3.35706e-286
2.63647e-245
1.12579e-93
0
2.0441e-93
0
4.25376e-132
1.16086e-59
5.85802e-130
2.13466e-102
0
4.94078e-272
1.51105e-124
0
0
0
2.23873e-19
9.26334e-79
6.65893e-274
0
0
0
4.51594e-277
0
4.46383e-162
7.98993e-120
1.14607e-81
0
1.99018e-13
7.28513e-217
2.02293e-100
0
0
1.01575e-263
4.39578e-12
0
1.28474e-183
0
0
0
0
0
0
0
0
0
1.17612e-122
5.62428e-120
3.87463e-234
1.80994e-102
1.47251e-155
0
0
1.94537e-215
1.1149e-247
3.53795e-184
9.2825e-106
2.18855e-104
0
0
2.18653e-236
5.12323e-216
0
1.59161e-207
0
130366
0
0
196299
0
6.71561e-08
0
7.84927e-62
1.1134e-33
3.1921e-59
0
5.86511e-52
3.84773e-57
0
0
0
0
2.31528e-144
9.28276e-35
1.60787e-225
3.58723e-42
0
0
0
0
1.44901e-193
0
4.09751e-296
1.59088e-59
0
0
0
0
0
2.82943e-57
0
0
1.36682e-195
9.96946e-117
0
0
3.89631e-62
6.57276e-60
6.07507e-82
2.33404e-86
0
0
0
5.46627e-39
54825.5
0
0
0
1.59929e-19
0
2.24483e-205
0
0
0
0
4.26752e-20
6.39263e-227
0
0
3.89427e-14
1.37427e+06
0
1.81436e-90
0
0
3.26753e-105
1.24743e-78
2.74402e-15
2.8011e-226
0
0
2.32469e-223
0
0
7.60049e-106
2.01105e-198
0
0
9.99917e-91
1.83491e-77
2.07666e-179
2.64627e-94
0
0
0
5.14712e-75
0
0
4.04459e-52
1.27531e-104
1.7435e-203
1.64177e-100
3.52126e-111
2.20582e-115
0
0
2.28226e-10
0
0
9.61141e-11
0
1.0313e-54
6.9382e-101
3.63876e-151
0
0
6.08634e-102
0
1.85206e-18
6.26774e-158
0
0
5.23372e-103
2.78105e-57
2.51369e-104
0
0
0
2.9411e-105
5.97687e-52
2.58603e-266
0
7.20197e-45
7.28117e-47
0
3.26029e-31
0
0
0
0
3.83834e-49
0
0
2.9228e-109
0
1.39809e-109
8.14157e-62
1.86698e-55
5.29649e-08
1.01556e-56
1.62403e-54
3.67034e-79
4.96805e-37
0
1.01766e-15
8.91566e-65
4.97394e-112
1.47872e-51
1.05446e-157
0
1.2704e-204
3.54418e-253
1.4533e-52
0
1.42943e-76
0
0
2.51446e-46
0
1.51953e-40
4.21991e-55
8.58091e-157
0
2.96175e-223
0
0
0
0
0
0
0
1.04884e-50
0.000526406
0
0
7.19828e-10
5.11075e-308
7845.84
0
0
1.25011e-12
0
0
5.20444e-109
0
4.19992e-304
0
0
0
0
0
1.04325e-101
0
0
2.13947e-195
0
3.1951e-175
7.94423e-292
0
2.07386e-296
1.00918e-172
3.746e-190
380.764
0
5.85199e-31
4.34847e-118
0
1.91609e-292
3.48535e-82
0
6.78508e-60
0
0
3.41105e-48
0
2.02972e-186
2.46483e-107
1.53208e-09
0
1.72753e-110
0
1.01608e+06
0
5.33022e-70
0
0
0
2.30337e-259
6.15941e-53
0
6.80578e-60
7.16108e-156
0
0
0
0
6.12227e-72
1.01235e-192
3.48468e-116
0
8.28533e-164
1.21067e-27
0
0
2.92755e-40
1.3568e-105
0
6.44358e-27
5.47727e-104
0
0
3.56027e-30
4.48758e-05
2.6986e-209
5.06267e-54
2.95335e-253
0
0.459149
0
2.11266e-92
0
0
5.89919e-101
0
4.10054e-201
0
0
0
4.41403e-95
9.00904e-255
6.95818e-82
0
2.49629e-07
0
0
0
0
1.59365e-184
2.073e-194
0
4.77556e-291
1.24094e-45
3.97519e-104
4.77528e-71
0
0
0
0
0
4.86453e-08
0
0
0
0
0
0
2.7209e-68
0.411717
5.71457e-13
1.01687e-284
8.34877e-14
0
1.00716e-262
4.88715e-131
7.12162e-37
1.18074e-52
0
4.329e-82
0
0
2.51941e-10
2.42081e-203
0
0
0
5.78601e-195
1.48393e-275
0
0
1.82663e-113
5.18278e-77
4.76673e-251
6.71686e-225
0
4.8247e-75
1.244e-79
0
0
2.01775e-194
1.35863e-77
7.88477e-143
0
0
1.95416e-157
3.06958e-91
0.419881
0
3.3266e-25
3.27089e-93
58.8143
75.4414
0
0
0
0
0
2.2583e-89
0
0
1.32389e-59
0
4.10397e-06
0
0
0
0
1.90527e-281
0
6.84291e-158
2.56139e-96
0
0
7.90808e-58
5.40756e-110
3.13581e-72
2.85739e-96
2.02984e-91
0
0
5.59735e-13
0.205763
0
2.48206e-116
0
4.87863e-59
7.53682e-59
0
0
1.22369e-119
24.1308
0
0
0
1.65724e-98
2.32828e-55
0
3.1213e-44
1.4889e-244
0
3.9221e-114
0
7.51362e-113
0
0
7.06423e-186
0
5.25017e-117
4.47753e-171
0
5.17847e-46
6.17508e-129
0
6.74607e-115
0
0
0
0
8.05756e-267
0
6.08827e-131
8.65536e-246
0
0
1.72981e-256
1.82603e-161
2739.96
1.05554e-159
0
0
0
1.16819e-88
0
0
0
1.31835e-163
0
2.08299e-159
4.03591e-114
8.55843e-282
0
0
0
0
0
2.37158e-162
0
0
0
3.97648e-247
0
0
3.04089e-268
0
1.21021e-134
1.75436e-243
2.82246e-199
0
0
5.35434e-80
1.88184e-139
9.04294e-22
0
0
638421
1.21397e-05
4.88349
766634
0
1.5949e-266
0
4.69928e-275
0
0
0
0
0
0
5.88471e-20
0
1.39026e-138
0
3.84226e-14
0
1.63018e-167
0
0
0
5.71572e-15
6.335e-83
2.24122e-74
3.59738e-220
0
0
2.26074e-255
0
3.20271e-78
0
1.73181e-201
0
0
0
0
0
0
8.86707e-157
0
0
0
0
0
8.23853e-51
0
0
2.51411e-62
1.1836e-227
4.58209e-47
4.19769e-225
0
4.62661e-107
0
0
3.15171e-124
0
2.36718e-166
3.45151e-15
0
9.556e-57
3.04064e-16
4.17878e-22
1.74729e-20
0
4.23542e-54
0
4.29119e-117
0
0
0
1.92358e-09
0
2.47448e-201
1.53799e-10
0
0
1.65438e-74
0
2.72334e-274
1.38969e-215
0
3.26337e-36
1.63945e-181
2.17471e-208
0
0
0
0
0
1.20757e-231
0
0
1.98731e-229
2.11592e-311
2.02496e-232
0
2.48946e-233
1.11155e-267
2.6269e-195
9.35751e-264
0
0
0
3.36967e-213
32315
228.866
2.84012e-189
0
0
3.71299e-219
1.37378e-10
0
1.3428e-268
2.83353e-93
0
2.4542e-100
1.19856e-95
0
0
0
0
3.58872e-220
0
1.15009e-144
0
8.16203e-247
0
0
2.35384e-105
1.70369e-97
0
0
0
0
1.88531e-93
1.04456e-90
0
0
3.07802e-146
7.10153e-207
0
0
9.90712e-175
2.05883e-91
2.04433e-86
2.23257e-294
0
1.98933e-25
7.08168e-112
0
9.83085e-166
2.7339e-187
1.24488e-156
0
0
8.38273e-89
2.08257e-198
0
4.93098e-196
0
0
0
0
0
0
0
0
0
0
1.3904e-60
1.78431e-140
0
6.24251e-195
0
2.34529e-150
9.70425e-216
0
0
0
2.47608e-210
9.58138e-253
0
0
0
0
2.2746e-45
0
1.71907e-274
1.40157e-108
0
5.68428e-21
0
2.52294e-185
5.45956e-292
0
1.94598e-210
1.88037e-272
0
0
6.31197e-191
7.70482e-147
0
1.14675e-132
3.11639e-136
9.97012e-127
0
0
2.75669e-135
2.416e-119
0
5.34257e-308
3.83942e-236
0
1.64521e-250
0
0
0
0
3.37775e-67
0
0
0
0
0
1.29925e-170
1.84753e-135
2.80469e-72
0
0
0
2.4453e-103
2.19055e-104
0
0
1.39098e-168
0
0
0
0
1.47974e-44
0
1.87739e-183
2.54599e-199
0
1.19405e-108
0
1.07548e-132
0
0
2.93272e-205
1.9507e-245
0
0
0
3.52833e-94
1.28954e-202
0
0
0
5.46248e-192
0
0
2.07571e-237
0
9.28338e-64
0
5.66563e-154
2.16132e-147
0
1.30425e-232
9.431e-40
3.58592e-21
0
0
0
4.99417e-140
0
0
0
0
6.55046e-205
2.61203e-184
2.11206e-201
1.12449e-138
1.49088e-89
0
8.06459e-268
0
1.50399e-64
0
0
0
2.83234e-120
0
1.07033e-247
0
0
0
4.12819e-170
4.38576e-203
6.15426e-07
2.16365e-130
1.80334e-177
0
0
1.68324e-18
0
4.85054e-136
0
0
6.66822e-158
2.93294e-247
1.12024e-47
0
2.08752e-41
1.61008e-17
0
0
3.93821e-219
1.32929e-238
9.11596e-218
0
4.53303e-268
0
2.36399e-244
0
7.81102e-46
8.58341e-88
5.9386e-71
2.17102e-232
0
7.10007e-72
3.78689e-10
1.36288e-216
1.10671e-80
0
4.73061e-83
9.10313e-84
0
8.38492e-278
4.25392e-189
0
1.24222e-223
3.69493e-41
0
6.63561e-86
0
0
2.9025e-39
0
5.26556e-16
1.70779e-05
8.63159e-254
8.01317e-25
1.70354e-239
0
1.71223e-274
4.65117e-275
0
7.43047e-274
1.31214e-242
0
2.90293e-271
1.28349e-258
1.31699e-140
0
8.49915e-278
1.26352e-276
0
0
0
0
0
9.40304e-291
0
8.04821e-254
0
0
5.04537e-62
0
1.67897e-271
1.73764e-245
0
0
0
8.0636e-209
1.15214e-53
0
0
2.70622e-270
8.06712e-79
0
0
0
1.55506e-252
0
0
0
0
2.71605e-76
0
6.56224e-77
1.00253e-16
53527.3
0
3.9866e-303
0
0
0
93659
0
0
1.21151e-261
2.9128e-118
0
0
0
0
4.0855e-33
0
0
0
1.51393e-27
0
1.71839e-282
1.69287e-26
0
2.58036e-185
27936.5
0
0
2.47903e-247
0
0
1.57364e-297
2.24815e-81
0.0118573
0
3.47392e-209
0
0
0
0
7.05156e-239
0
0
3.25919e-248
0
0
4.53323e-272
0
8.26872e-90
0
0
0
5.39136e-86
8.86147e-256
0
4.74796e-55
1.23304e-115
0
0.000388044
0
1.99231e-09
1.32331e-244
8.37263e-10
0
0
0
0
0
5.39962e-143
0
0
4.71374e-241
0
5.87945e-179
0
0
0
0
9.01811e-201
8.69719e-276
1.62145e-101
1.21976e-138
0
2.94687e-25
5.35404e-254
1.48487e-22
0
1.06424e-294
2.32832e-309
0
0
0
7.37534e-186
1.80429e-240
0
1.0628e-16
0
5.39209e-123
3.18589e-146
0
3.36733e-224
5.90868e-257
0
4.43016e-18
6.24756e-111
0
0
4.70942e-18
7.567e-157
3.00242e-202
0
0
5.19876e-34
0
0
2.41948e-265
7.22714e-264
0
0
0
6.50594e-30
5.01467e-214
0
0
0
0
2.63452e-201
0
0
5.78113e-28
0
1.78159e-35
7.42849e-36
0
9.07588e-254
1.97523e-157
0
1.43614e-100
0
0
6.63773e-171
1.1605e-200
0
3.04446e-150
0
0
0
0
3.94177e-145
1.18509e-147
0
4.01954e-136
0
6.26006e-169
1.1321e-261
1.20741e-205
3.13354e-100
1.38919e-142
0
0
3.3752e-275
0
0
4.85339e-153
0
0
0
9.30316e-167
3.95135e-278
0
0
1.36404e-93
0
0
1.08554e-181
0
2.67392e-234
7.78551e-182
0
0
0
0
0
0
3.47626e-180
0
0
0
5.9634e-136
0
5.54757e-178
1.13864e-141
1.10239e-94
3.32085e-189
0
0
2.70244e-32
0
0
1.34954e-202
5.67844e-203
8.45749e-133
6.96995e-181
4.18346e-213
0
0
3.45386e-288
0
2.35455e-210
2.74234e-69
0
1.98072e-158
2.3074e-205
0
1.51449e-215
2.62681e-258
1.67563e-201
0
0
0
1.23446e-117
4.55956e-127
0
4.47449e-286
1.55627e-163
9.76393e-289
2.02505e-150
3.27812e-127
0
0
2.69075e-229
0
9.39531e-268
0
7.87482e-267
0
0
0
9.97233e-266
0
1.54332e-110
6.40986e-143
0
0
0
0
0
0
3.1751e-279
0
0
1.94937e-282
0
0
7.34631e-219
0
0
2.22904e-168
0
7.8346e-116
0
0
1.35471e-156
0
0
0
2.31288e-250
1.42581e-108
2.21958e-178
4.03626e-130
0
3.37674e-104
0
0
0
1.27722e-23
0
0
2.87314e-178
9.57029e-259
0
0
0
0
1.41088e-235
0
0
1.36965e-242
0
2.50373e-73
0
0
0
0
0
2.0782e-35
0
0
6.02075e-74
3.03786e-76
1.3374e-73
2.87007e-84
4.07007e-77
9.75665e-128
2.49832e-111
0
0
0
2.98259e-124
0
0
0
1.34517e-238
0
0
0
0
0
8.49302e-136
0
4.90758e-193
0
0
0
0
0
3.05148e-241
3.93934e-243
2.95575e-112
0
2.7562e-83
0
0
6.16704e-114
0
7.52389e-247
2.36592e-253
7.79578e-98
4.33013e-247
8.72781e-244
0
1.2184e-34
8.55874e-125
0
2.07809e-73
0
0
0
6.25769e-231
0
0
3.27309e-34
1.56604e-33
3.06771e-237
1.03406e-77
2.5848e-181
7.81455e-24
1.29111e-119
0
7.03998e-21
3.6122e-259
5.62542e-25
4.29847e-213
2.08705e-73
0
9.42803e-79
9.81171e-21
0
1.14906e-23
6.16618e-28
4.44152e-29
8.53797e-107
0
1.25141e-09
1.80037e-166
0
2.75825e-102
0
0
0
7.73772e-86
0
0
9.64974e-268
1.04665e-30
0
1.3941e-122
0
1.0354e-107
7.91182e-39
5.13168e-77
1.81199e-32
5.98747e-102
9.3869e-154
1.07627e-38
5.12024e-46
0
9.74351e-37
0
2.42533e-119
3.24739e-37
0
1.35946e-175
0
9.68649e-35
1.60801e-156
0
0
1.14366e-76
0
6.03807e-32
0
0
8.84841e-264
5.19451e-52
4254.3
0
0
2.52921e-89
21245
299133
0
0
0
0
8.39337e-190
0
0
0
0
2.32388e-270
0
1.33698e-255
4.21546e-37
1.27301e-215
0
5.15949e-36
1.51329e-31
1.77351e-205
0
1.26873e-202
6.78507e-39
0
0
1.22715e-265
3.20386e-237
0
4.56892e-233
0
3.68093e-104
2.35837e-233
0
0
0
1.11856e-230
1.05903e-84
2.24363e-101
1.0455e-235
1.14923e-117
1.05136e-99
6.65389e-231
0
1.37015e-78
0
0
0
0
0
3.99529
8.87123e-117
4.72566e-196
4.95663e-235
0
0
0
2.39128e-257
0
0
0
1.04761e-229
5.53378e-220
0
1.84333e-126
0
0
0
0
0
0
0
0
0
0
325.715
0
0
1.60354e-208
0
0
632.651
0
2.09571e-101
4.66704
6.9727e-160
5.98249e-150
0
0
0
6.30637e-127
0
4.62617e-151
2.79832e-83
0
0
0
0
4.51379e-141
4.15545e-55
0
1.40593e-209
6.75763e-153
0
0
2.8698e-179
0
0
8.97017e-156
2.67181e-162
0
0
1.35536e-202
0
9.73516e-209
0
0
5.7564e-143
6.10853e-94
0
0
0
9.2119e-247
0
0
0
0
0
6.20225e-195
0
0
0
2.3837e-267
0
0
0
0
0
0
1.02685e-153
0
2.05392e-104
0
0
0
0
0
0
0
0
3.97373e-26
1.37003e-152
0
0
3.42397e-167
0
3.85412e-57
5.95562e-99
0
0
0
1.78494e-139
2.89114e-24
0
1.67738e-121
2.07854e-21
0
0
0
1.78779e-110
7.47244e-110
1.3928e-186
1.18841e-197
0
8.40492e-203
9.23765e-23
1.1459e-112
0
0
2.67981e-50
0
0
6.55693e-21
2.18845e-131
1.9493e-112
6.98408e-189
1.49117e-19
6.6659e-177
1.20142e-209
0
0
0
6.61502e-273
0
0
2.00939e-180
1.22006e-30
0
0
3.59215e-108
1.31195e-51
1.93917e-109
0
9.62731e-85
1.37497e-53
0
3.94624e-164
2.98151e-144
0
5.46574e-161
0
0
7.51917e-196
3.53074e-86
2.31823e-16
6.51134e-239
0
0
0
7.11513e-264
4.70138e-309
0
6.12068e-77
0
2.71318e-234
0
0
0
0
0
0
6.34458e-85
0
1.38817e-114
0
0
9.50525e-220
0
0
1.48944e-291
0
6.91276e-305
9.91121e-312
0
1.22588e-81
0
2.06899e-69
6.01374e-63
4.71757e-73
0
1.51317e-71
1.50258e-159
0
2.60375e-258
1.37578e-265
0
0
6.51977e-297
0
0
0
2.04009e-210
3.2608e-164
0
2.25488e-165
0
7.69182e-240
8.94218e-262
0
0
1.62886e-207
0
0
9.23931e-260
0
0
3.84724e-205
1.3972e-146
0
9.91609e-80
0
1.75841e-195
3.4607e-217
0
0
0
5.1477e-233
0
0
0
0
0
0
0
0
0
2.91846e-131
0
5.17633e-59
0
0
0
0
0
7.76335e-57
1.34038e-141
3.29722e-93
0
0
3.67792e-141
0
0
0
0
1.48187e-259
0
0
0
0
1.69326e-59
7.17228e-239
0
1.4158e-230
0
0
8.28769e-20
0
1.68525e-155
3.65877e-114
0
6.12034e-285
0
0
2.09697e-214
9.06843e-215
2.58897e-162
0
0
0
2.24273e-173
0
0
7.43173e-240
0
6.15105e-239
0
0
0
0
0
0
0
0
0
9.80667e-251
0
3.60526e-109
7.63406e-170
0
2.85685e-164
0
3.51692e-207
2.36283e-144
0
7.41939e-142
0
8.22399e-156
0
6.77547e-125
0
0
4.09932e-110
0
1.19851e-199
0
2.98216e-91
0
0
0
1.18708e-83
0
0
0
0
3.9292e-57
0
5.43579e-152
0
0
1.77788e-39
0
1.52165e-46
0
0
0
1.29872e-180
0
3.4364e-248
0
3.38933e-23
2.02269e-257
0
1.30363e-13
6.92504e-86
8.31045e-12
0
0
0
0
0
9.18017e-261
1.18872e-15
1.31397e-241
0
9.31966e-103
0
2.73647e-105
0
3.71589e-19
2.26119e-154
1.31689e-10
2.37862e-16
0
0
3.43121e-149
5.16397e-151
3.4896e-58
1.5334e-26
3.4088e-101
0
2.23793e-148
1.93614e-169
0
4.13232e-270
0
3.2154e-292
2.74933e-161
0
0
8.39789e-155
0
0
6.79083e-27
0
4.93112e-78
7.11149e-29
3.11292e-20
3.66796e-73
0
7.39376e-178
6.09657e-21
1.38911e-211
0
1.19799e-223
2.11217e-156
2.1344e-23
0
0
0
3.12356e-227
0
9.99335e-309
1.04616e-23
0
1.9853e-177
0
9.8284e-115
7.03154e-190
3.70953e-153
5.40535e-195
1.35903e-87
0
2.23881e-217
0
0
0
1.93253e-205
1.34587e-166
0
7.05655e-205
0
0
0
0
0
0
1.09398e-189
6.08982e-246
0
0
4.11613e-243
4.05804e-247
0
8.97242e-252
0
0
3.08868e-65
0
3.71248e-166
6.8328e-222
0
0
0
3.42431e-231
8.81488e-196
1.63962e-222
0
5.96709e-133
0
0
0
4.42798e-211
6.14746e-191
0
0
1.03826e-231
0
0
0
0
0
0
0
8.78263e-215
2.38723e-193
0
3.55479e-193
0
1.13659e-229
1.53808e-163
0
0
0
0
5.17062e-91
1.24267e-226
2.65837e-119
0
0
0
0
2.00236e-145
0
7.58514e-216
0
0
1.04413e-247
3.56219e-95
2.81336e-231
1.43208e-100
8.56025e-32
3.12523e-78
7.51042e-250
0
3.17068e-177
0
0
0
3.51337e-248
1.30375e-245
0
4.42076e-18
0
3.88388e-225
0
0
0
0
0
0
0
6.49063e-280
3.27487e-52
0
0
1.07542e-20
0
0
0
0
0
0
0
1.10697e-26
0
5.6488e-90
1.06261e-93
0
3.70273e-192
0
1.3937e-16
9.18902e-267
0
3.75667e-228
0
6.27518e-13
2.69684e-262
0
8.58576e-12
4.31859e-29
2.99763e-231
0
8.10152e-23
0
0
1.08993e-310
4.82864e-24
1.75862e-244
0
2.7824e-36
0
9.24722e-18
0.949186
0
1.64472e-132
0
5.70643e-49
0
3.37393e-34
0
4.02496e-33
5.89229e-101
1.85782e-239
0
0
0
0
0
0
0
0
0
1.34725e-10
2.96774e-90
0
1.96881e-28
1.33311e-30
2.30038e-83
1.00007e-307
0
0
0
0
0
0
3.47066e-40
0
6.62439e-07
0
0
0
1.41014e-39
1.29029e-186
0
2.1963e-98
3.8497e-19
0
3.81742e-47
5.00164e-68
0
1.25309e-91
3.93854e-146
0
7.10294e-98
1.80354e-199
0
5.60326e-187
0
5.27306e-135
1.12922e-200
0
2.08768e-35
6.11166e-71
0
9.25999e-271
0
0
3.02527e-268
5.77406e-75
7.11323e-22
0
0
1.50372e-274
3.1619e-290
0
0
1.30865e-21
2.1231e-42
1.70143e-265
1.08675e-273
5.54592e-271
3.32417e-206
3.14702e-218
0
1.34594e-216
0
0
1.68169e-268
6.88105e-52
0
0
1.48092e-248
0
0
8.78185e-47
0
0
1.9293e-206
0
0
0
0
0
0
0
0
2.61666e-47
0
0
3.11082e-263
0
0
0
7.04545e-180
4.09085e-162
0
0
0
0
0
0
2.68175e-291
0
0
0
0
0
9.11028e-196
5.26676e-170
0
3.80625e-309
0
8.8433e-273
5.38272e-247
6.69946e-217
0
1.95916e-251
0
0
0
0
0
2.10469e-214
3.91662e-123
0
3.90228e-14
1.33178e-193
0
1.13745e-91
2.19811e-74
0
0
3.85098e-11
3.72004e-12
4.06239e-114
0
1.27468e-08
7.20387e-178
0
1.32344e-10
0
3.29496e-22
0
0
3.58794e-264
0
1.46178e-114
0
1.98481e-20
0
0
0
0
8.41767e-128
0
1.17399e-276
0
4.91521e-24
0
0
0
0
1.05796e-225
0
2.25476e-253
0
0
0
0
0
0
4.9946e-253
4.57987e-21
0
0
6.46202e-215
0
2.5736e-49
1.55861e-304
0
7.8128e-118
0
0
0
0
0
3.24515e-269
0
0
0
6.36391e-173
0
0
7.33221e-261
0
5.19451e-227
4.6913e-209
0
0
0
2.37021e-261
0
0
7.90194e-11
8.51638
1.35872e-287
0
9.80136e-222
0
0
1.02469e-146
0
0
0
0.166059
0
5.57389e-216
0
1.0753
0
0
0
0
0
8.09068e-256
0
0
2.02529e-213
0
1.47585e-183
0
2.04369e-234
0
1.82459e-250
1.72597e-221
6.20081e-227
0
0
0
0
0
1.64822e-200
1.14206e-89
6.18221e-252
0
0
1.56481e-250
7.72136e-20
2.13259e-151
0
0
1.26158e-260
4.03422e-205
0
1.10721e-192
6.30926e-201
0
2.3641e-210
1.56881e-11
0
0
2.81947e-10
3.33416e-08
3.78676e-73
0
2.11944e-250
0
0
2.20227e-230
1.20904e-231
3.42517e-204
0
0
0
5.24548e-238
0
0
0
0
3.24463e-87
0
2.09219e-185
0
0
0
0
0
8.0265e-168
0
0
1.55073e-57
3.14688e-84
4.70696e-55
8.06665e-210
639.328
1.36399e-178
3.88567e-291
4.71326e-38
0
0
0
0
0
1.0527e-207
1.84934e-79
0
0
1.41177e-60
0
0
0
0
2.38175e-258
0
1.1206e-296
4.60385e-195
6.49227e-87
0
0
0
7.69836e-98
0
0
6.71747e-75
0
1.77006e-130
6.28977e-265
0
0
0
6.71139e-128
7.98767e-26
0
7.11602e-312
1.07975e-99
5.88959e-130
0
0
1.66456e-127
4.23765e-177
1.32301e-194
0
5.14804e-206
0
1.33497e-212
1.60867e-134
1.74182e-178
0
8.52714e-127
7.40829e-95
7.35553e-102
3.27152e-12
0
1.35153e-157
0
1.67402e-260
1.34548e-13
0
1.39271e-260
9.27001e-229
5.93197e-203
0
1.48962e-129
4.06942e-133
0
3.54487e-137
9.94204e-132
4.26937e-32
0
0
0
4.26056e-310
3.82993e-298
0
1.12503e-13
1.1028e-278
0
0
0
5.758e-169
0
0
0
0
1.86422e-13
3.62785e-13
0
2.90722e-77
0
1.64953e-79
1.1716e-162
0
0
7.78467e-124
0
0
0
4.64137e-221
5.3195e-124
0
0
0
7.61958e-146
0
0
1.45183e-298
0
9.36926e-156
0
8.6832e-138
0
0
1.99075e-130
0
1.72935e-246
0
0
1.6424e-309
2.69428e-126
1.32346e-170
0
0
4.09206e-126
0
1.56477e-169
3.25237e-74
0
0
7.94879e-288
0
0
0
0
5.27909e-146
0
7.7053e-75
1.21027e-164
3.60156e-128
3.06127e-77
0
0
8.148e-216
0
0
1.21739e-141
3.08717e-73
0
0
0
2.49933e-75
0
5.44296e-238
1.42478e-239
6.0402e-225
0
0
0
0
0
0
0
0
0
0
0
2.52042e-304
0
0
3.54557e-85
0
9.20706e-76
4.26895e-287
0
7.56879e-120
0
0
0
5.66769e-309
0
0
0
0
0
1.67626e-256
0
0
0
0
1.46502e-144
3.45895e-284
0
0
0
4.76521e-278
0
0
0
0
1.14349e-191
1.98666e-249
0
0
7.40812e-294
0
0
0
0
0
2.86749e-147
0
4.29291e-298
9.88672e-255
1.1587e-246
2.20009e-264
0
0
0
0
0
4.60986e-295
0
0
1.0492e-134
2.52019e-192
2.1349e-241
0
1.1609e-174
0
3.59216e-303
0
0
0
3.40161e-200
2.10263e-249
0
0
0
0.000960014
0
0
2.30704e-152
0
0
0
0
3.91419e-253
0
0
0
0
0
2.92848e-125
4.74649e-155
0
2.15837e-297
0
7.91701e-155
2.65985e-157
0
0
0
4.43636e-303
2.22422e-280
0
0
0
0
2.60979e-159
0
0
4.23694e-157
1.28119e-127
0
1.71776e-222
2.33531e-139
0
0
0
1.40909e-138
0
0
0
7.34408e-256
0
8.77002e-290
0
0
0
0
0
0
0
0
0
1.94178e-241
0
0
0
1.60084e-257
0
1.41279e-297
0
0
0
0
0
0
0
0
0
0
4.49815e-235
2.30615e-181
0
1.88109e-313
1.09339e-212
0
0
0
0
1.16306e-130
0
0
3.04465e-126
4.58346e-282
4.46611e-75
0
0
0
0
0
0
0
0
0
0
0
0
0
3.5509e-44
0
4.00499e-232
3.24895e-311
0
1.41272e-49
2.73297e-69
0
0
0
2.1781e-172
5.77276e-48
3.62211e-08
0
0
0
2.54443e-278
0
0
0
0
0
9.15195e-246
0
1.32167e-61
0
0
0
7.85594e-125
0
1.79068e-121
3.29167e-122
1.58429e-275
3.76485e-29
0
0
0
49686.7
0
0
0
0
8.68858e-75
0
2.38778e-290
0
0
2.36671e-241
0
0
0
1.86496e-74
0
0
0
6.07567e-59
0
1.69152e-130
0
1.82175e-132
0
0
7.18024e-137
0
0
0
0
0
0
4.50876e-42
4.23964e-243
0
1.23139e-134
0
0
0
5.77713e-59
0
0
5.9973e-154
0
3.86255e-264
0
2.59639e-12
0
0
4.56635e-293
0
0
4.03574e-307
57430.6
1.23049e-158
0
2.23972e-251
0
0
0
0
0
0
6.26794e-117
1.14223e-237
0
4.81531e-256
0
0
1.78156e-279
0
0
0
1.34816e-119
2.38669e-305
0
2.07632e-252
5.77511e-192
0
6.05532e-262
0
0
1.9574e-99
1.60802e-285
0
0
2.26575e-151
0
0
2.09953e-101
1.94108e-154
8.14925e-285
0
0
0
2.47073e-99
0
0
3.90058e-150
0
0
0
1.21659e-10
0
0
0
7.61884e-264
0
0
0
0
0
0
1.99581e-131
9.92389e-166
0
0
3.66189e-265
4.71362e-251
0
1.20966e-180
0
0
8.96971e-52
2.10305e-112
0
2.04654e-249
0
0
0
0
0
0
2.75488e-252
1.89815e-259
0
2.36788e-114
1.85775e-115
0
0
0
5.14487e-50
2.46735e-252
0
0
8.27122e-296
0
1.78186e-282
0
0
0
8.36842e-214
0
0
1.29227e-273
0
6.99281e-283
0
0
1.32438e-287
1.24564e-204
3.30526e-262
2.72018e-129
0
4.98545e-126
6.07294e-259
0
0
2.92298e-265
0
0
0
0
0
0
2.31705e-46
0
2.24335e-46
0
0
0
1.76185e-224
0
2.24449e-48
2.05823e-44
1.08424e-296
0
2.22039e-227
0
6.59281e-230
0
9.3174e-236
1.51174e-248
7.30437e-284
0
1.99004e-290
0
0
0
0
4.08829e-302
3.84852e-216
0
1.68829e-313
0
0
0
0
4.62006e-277
0
0
0
0
0
0
0
0
0
0
4.22067e-261
0
3.39267e-298
0
3.79926e-313
2.12242e-150
7.90572e-167
1.44635e-156
2.52169e-135
4.51866e-133
1.1635e-122
0
0
2.53707e-293
0
0
0
0
1.57654e-272
9.66533e-158
0
0
0
4.37385e-133
2.90573e-137
0
0
0
0
0
1.32418e-276
0
0
0
0
0
0
0
0
0
6.68427e-289
0
0
2.63118e-297
0
0
0
2.03848e-211
0
0
0
0
0
0
0
5.68123e-125
0
2.52842e-248
2.67108e-142
0
0
1.39637e-145
0
0
0
0
0
7.86095e-150
0
8.15085e-273
0
4.9734e-286
0
1.79879e-78
7.98009e-163
0
0
0
2.62884e-165
6.32355e-286
3.41767e-120
1.71543e-81
0
0
0
0
0
0
0
9.20037e-236
0
0
0
5.72974e-118
2.8004e-270
0
0
7.38737e-233
1.49381e-303
0
3.11333e-266
1.56058e-236
0
0
3.71285e-222
0
4.61566e-84
1.34209e-159
0
0
1.16061e-199
0
6.3908e-274
7.00067e-128
0
3.36299e-162
0
1.14335e-124
2.84549e-272
3.13734e-213
0
3.21339e-239
1.62298e-127
4.41242e-297
0
4.85439e-41
8.20585e-64
5.6193e-263
4.93401e-24
3.07078e-17
0
0
4.46123e-64
2.92126e-60
7.40802e-126
3.78812e-125
2.22454e-115
0
0
0
3.41811e-125
8.79941e-30
3.88183e-92
0
1439.12
0
7.24713e-70
1.01863e-70
0
0
8.7262e-198
3.34989e-158
0
1.72268e-78
6.23732e-61
0
0
0
4.40127e-92
0
1.41178e-105
0
5.14738e-274
6.5591e-61
0
0
0
0
1.29944e-145
0
0
0
0
9.7592e-126
0
0
0
2.58547e-87
0
0
4.27724e-110
0
0
0
0
6.24241e-149
0
5.98099e-82
0
5.35771e-209
0
0
0
0
8.68152e-16
0
0
1.96945e-23
4.21083e-62
0
0
4.51395e-99
1.48399e-12
7.05348e-76
0
0
0
4.45614e-28
7.93396e-32
8.36287e-118
0
3.32141e-53
0
416803
1.95198e-15
0
0
0
0
0.000159682
1.27134e-17
0
0
1.6544e-168
1.44536e-122
2.10379e-136
7.0718e-109
9.3926e-178
2.76818e-175
0
2.29488e-112
9.93611e-07
0
0
6.34979e-173
3.83088e-103
3.56357e-22
1.73356e-76
5.87542e-99
9.43295e-106
0
0
4.61953e-74
0
0
1.46388e-176
0
0
3.13531e-40
6.87659e-30
0
0
0
5.9466e-167
0
2.38978e-111
3.44e-138
0
5.45144e-97
2.94488e-122
5.15024e-76
0
0
4.27369e-80
0
0
2.13918e-63
6.04517e-70
0
0
0
0
3.29091e-57
0
0
0
7.38494e-154
9.16782e-147
0
2.87878e-114
2.95883e-161
0
0
0
0
0
0
5.30719e-132
9.26961e-148
0
0
3.31672e-174
0
0
9.0769e-157
2.07421e-114
0
0
9.16072e-113
0
0
0
0
1.33215e-23
0
1825.62
0
1.02611e-128
8.90959e-133
0
0
8.94813e-143
0
3.25651e-10
7.75701e-149
1.19782e-29
0
1.86626e-138
0
3.48981e-116
0
2.19827e-128
0
0
0
1.31924e-110
1.23386e-120
1.63418e-131
9.16874e-169
0
0
0
0
0
1.60439e-212
1.22169e-39
4.73623e-136
1.28952e-25
0
3.72098e-63
0
0
1.26644e-19
0
2.85248e-213
0
0
0
7.01285e-05
3.56737e-54
0
0
3.09091e-111
6.65988e-96
0
0
0
0
0
0
0
0
0
0
0
2.99382e-272
0
0
0
0
0
0
5.07258e-55
0
1.05053
6.6471e-84
6.34755e-69
0
2.2782e-264
1.11191e-310
0
0
0
0.170323
0
2.33586e-130
7.30907e-30
0
0
2.44501e-10
0
0
0
0
3.71301e-53
0
0
1.96652e-76
2.66875e-45
0
0