/*--------------------------------*- C++ -*----------------------------------*\
| =========                 |                                                 |
| \\      /  F ield         | OpenFOAM: The Open Source CFD Toolbox           |
|  \\    /   O peration     | Version:  v2012                                 |
|   \\  /    A nd           | Website:  www.openfoam.com                      |
|    \\/     M anipulation  |                                                 |
\*---------------------------------------------------------------------------*/
FoamFile
{
    version     2.0;
    format      ascii;
    class       volScalarField;
    location    "1.5";
    object      qin;
}
// * * * * * * * * * * * * * * * * * * * * * * * * * * * * * * * * * * * * * //

dimensions      [1 0 -3 0 0 0 0];


internalField   uniform 0;

boundaryField
{
    fire_inlet
    {
        type            calculated;
        value           nonuniform List<scalar> 
34
(
4033.41
5947.35
2764.49
4565.72
4681.86
5130.23
4764.02
4997.95
6188.48
8359.61
7126.1
10831.1
13966.6
11396.4
3834.41
6958.75
4791.85
7286.26
10004.8
8062.45
8279.87
6428.01
11434.7
14216.4
14083.9
15379
6060.75
13631.2
16200.7
13035.4
10373.8
7627.85
11940.5
15089
)
;
    }
    outlet
    {
        type            calculated;
        value           nonuniform List<scalar> 
400
(
459.303
459.303
459.303
459.303
459.303
459.303
459.303
459.303
459.303
459.303
459.303
459.303
459.303
459.303
459.303
459.303
459.303
459.303
459.303
459.303
459.303
459.303
459.303
459.303
459.303
459.303
459.303
459.303
459.303
459.303
459.303
459.303
459.303
459.303
459.303
459.303
459.303
459.303
459.303
459.303
459.303
459.303
459.303
459.303
459.303
459.303
459.303
459.303
459.303
459.303
459.303
459.303
459.303
459.303
459.303
459.303
459.303
459.303
459.303
459.303
459.303
459.303
459.303
459.303
459.303
459.303
459.303
459.303
459.303
459.303
459.303
459.303
459.303
459.303
459.303
459.303
459.303
459.303
459.303
459.303
459.303
459.303
459.303
459.303
459.303
459.303
459.303
459.303
459.303
459.303
459.303
459.303
459.303
459.303
459.303
459.303
459.303
459.303
459.303
459.303
459.303
459.303
459.303
459.303
459.303
459.303
459.303
459.303
459.303
459.303
459.303
459.303
459.303
459.304
459.304
459.304
459.304
459.304
459.304
459.304
459.304
459.304
459.304
459.304
459.304
459.304
459.304
459.304
459.304
459.304
459.304
459.304
459.304
459.303
459.304
459.304
459.304
459.304
459.304
459.304
459.303
459.303
459.303
459.303
459.303
459.303
459.303
459.303
459.304
459.304
459.304
459.304
459.304
459.303
459.303
459.303
459.303
459.303
459.303
459.303
459.303
459.303
459.304
459.303
459.303
459.303
459.303
459.303
459.303
459.303
459.303
459.303
459.303
459.303
459.303
459.303
459.303
459.304
459.304
459.304
459.304
459.304
459.304
459.304
459.304
459.304
459.304
459.304
459.304
459.304
459.304
459.303
459.304
459.303
459.304
459.303
459.303
459.303
459.303
459.303
459.303
459.303
459.303
459.303
459.303
459.303
459.303
459.303
459.303
459.303
459.304
459.304
459.304
459.304
459.304
459.304
459.303
459.304
459.303
459.304
459.304
459.304
459.303
459.303
459.303
459.303
459.303
459.304
459.303
459.303
459.304
459.304
459.304
459.304
459.304
459.304
459.304
459.304
459.304
459.304
459.304
459.303
459.303
459.304
459.304
459.303
459.303
459.303
459.304
459.303
459.303
459.303
459.303
459.303
459.303
459.304
459.304
459.303
459.303
459.303
459.303
459.303
459.303
459.303
459.304
459.304
459.304
459.304
459.304
459.304
459.304
459.304
459.304
459.304
459.303
459.303
459.304
459.303
459.303
459.303
459.303
459.304
459.304
459.303
459.303
459.304
459.303
459.303
459.303
459.303
1069.58
845.915
727.893
619.548
685.006
705.609
702.011
668.788
1562.34
1381.66
1105.88
1282.92
977.128
1078.25
849.615
913.407
1489.19
1139.58
1292.95
1208.77
1386.16
1320.92
1341.48
1336.19
1536.32
1510.76
1419.55
1525.77
1420.41
651.021
781.006
787.266
664.532
705.123
708.038
743.919
724.115
730.512
652.156
819.508
750.25
1069.45
706.881
745.154
767.941
818.513
758.001
670.289
768.185
805.821
785.645
858.762
868.863
908.473
923.055
1354.37
1410.29
1132.35
1307.63
927.612
1232.08
1408.66
1299.01
1452.03
1399.7
714.191
965.416
784.545
868.863
698.998
875.552
830.142
1099.1
972.494
768.68
1107.26
1013.92
1374.36
1302.08
1370.99
1073.05
1079.28
803.096
990.834
1194.6
1215.29
1195.54
1265.14
1149.33
892.124
1043.62
879.474
1039.99
1227.02
1256.98
1242.25
1228.09
982.637
982.793
1010.99
1084.52
858.089
908.984
1061.37
1209.03
1020.18
1093.11
942.063
1021.4
1127.6
)
;
    }
    base
    {
        type            calculated;
        value           nonuniform List<scalar> 
14244
(
786.73
642.619
508.635
640.819
813.508
754.261
637.318
526.067
489.21
472.248
463.694
461.225
460.054
459.96
459.879
459.868
459.884
459.919
460.341
460.538
461.268
461.198
462.044
464.627
469.376
468.625
463.335
461.697
462.252
460.742
461.61
461.037
461.078
461.83
461.602
463.658
463.803
468.566
468.662
472.904
473.023
487.227
483.024
502.861
501.884
515.124
514.121
527.699
525.725
535.118
536.601
541.839
542.008
542.693
543.589
537.033
540.007
525.507
531.105
519.389
521.303
506.979
509.526
498.229
501.079
488.857
490.25
480.856
481.046
471.824
474.166
466.567
840.531
901.003
774.915
964.188
879.867
917.518
895.781
779.655
764.003
714.021
684.145
606.708
608.126
547.576
539.575
511.807
514.076
491.092
489.923
482.849
483.818
477.951
481.243
474.624
474.727
471.802
472.32
469.803
467.423
469.589
469.511
558.003
528.652
682.105
842.537
698.494
571.337
504.762
478.941
467.047
462.304
460.624
461.096
460.764
459.877
459.881
459.926
459.952
459.97
460.218
460.366
461.098
461.373
461.802
463.332
514.183
465.733
532.842
770.739
572.219
661.992
507.719
623.043
798.811
702.731
569.675
512.903
484.269
467.477
463.057
461.112
460.434
461.573
461.875
463.325
465.378
776.457
642.236
548.443
498.799
473.05
465.024
462.002
460.401
464.6
462.594
460.749
461.749
698.302
778.675
646.958
804.016
830.031
628.437
640.896
551.483
502.922
472.828
465.106
461.498
460.311
460.158
460.569
466.268
461.247
461.814
460.331
460.68
461.486
462.397
637.615
464.808
465.93
460.916
461.039
461.271
462.707
463.726
468.951
547.234
576.193
462.475
464.264
461.56
462.192
460.964
461.816
461.562
461.569
463.146
463.259
469.09
469.197
471.765
471.572
483.493
483.648
505.014
499.601
515.303
513.052
530.006
530.415
540.312
542.159
546.134
546.659
546.103
546.62
539.009
542.375
531.017
532.299
521.922
522.25
508.651
508.584
499.301
497.866
487.702
487.914
480.656
480.789
472.846
469.452
472.807
725.399
519.485
515.588
813.259
864.961
766.016
732.357
750.581
637.865
635.568
595.676
590.736
519.414
527.961
502.372
505.951
490.197
487.35
480.161
479.204
477.681
475.767
472.847
472.421
469.193
469.512
460.048
460.476
461.984
462.839
730.735
785.68
536.058
519.852
748.166
598.362
517.108
484.937
468.163
462.64
460.75
504.387
460.023
460.087
460.254
527.54
636.802
461.903
466.527
675.894
461.95
478.377
466.514
501.705
792.326
573.945
468.987
460.442
461.839
462.862
468.011
461.007
463.373
471.608
490.262
764.352
728.131
462.564
583.693
774.66
463.579
465.28
703.487
713.358
881.609
882.258
923.983
460.947
496.488
727.091
823.141
473.085
462.746
463.671
463.535
462.147
461.562
518.087
464.225
606.723
589.117
914.172
950.652
462.42
463.862
469.88
468.351
570.455
693.561
462.328
464.772
525.1
522.605
461.378
461.964
461.794
461.988
463.576
463.493
469.166
467.212
472.811
472.871
484.78
484.929
499.977
500.213
517.375
517.755
533.859
531.042
544.783
545.142
551.083
552.17
548.476
549.225
541.54
542.188
531.273
531.761
520.458
520.813
506.251
504.74
495.983
500.963
486.36
487.05
478.04
479.704
549.456
552.62
655.211
462.196
463.171
554.4
549.6
615.77
596.063
580.153
535.806
533.789
502.241
509.84
483.566
488.473
476.555
478.307
472.201
472.503
469.728
469.314
468.652
468.526
466.298
463.72
465.772
460.763
460.387
460.896
460.187
463.578
464.213
464.833
480.869
482.689
607.403
912.852
797.709
521.916
514.954
472.606
462.933
489.755
461.363
460.231
460.63
460.944
592.819
467.511
461.49
462.351
461.013
460.926
471.323
466.618
461.402
472.807
564.053
483.89
623.162
467.185
718.617
722.621
953.84
859.225
834.876
465.072
498.372
496.635
462.246
461.563
1049.68
1031.14
464.391
468.728
465.509
724.482
534.759
532.859
518.654
461.867
462.679
462.113
462.484
463.854
464.153
466.854
466.915
475.141
474.94
485.88
485.994
502.116
502.39
518.648
519.159
533.245
533.698
545.303
545.813
549.214
549.817
545.167
547.023
534.974
538.984
529.665
530.668
515.184
515.532
500.914
501.253
491.545
492.256
486.655
477.652
479.991
627.45
656.328
535.184
463.368
465.036
562.12
544.318
1104.37
1163.81
528.1
518.634
488.833
497.422
478.955
483.712
475.312
474.28
470.206
468.206
467.041
466.926
465.712
465.37
558.218
854.662
1074.36
462.697
603.965
562.16
953.689
527.03
471.729
460.956
461.608
473.385
462.103
462.053
466.252
463.959
470.59
471.919
814.797
483.185
471.486
463.873
462.882
464.163
463.371
464.91
461.167
462.981
461.829
465.545
468.172
465.092
465.259
467.229
463.781
622.632
541.274
577.516
472.295
470.153
478.203
465.279
504.964
867.281
1121.84
464.031
885.534
781.125
765.394
535.382
531.978
462.699
463.488
464.821
464.082
467.704
467.499
475.525
475.886
490.068
490.288
505.784
503.894
522.205
523.305
540.867
540.693
551.113
551.659
551.542
549.988
547.571
547.858
539.015
540.061
522.354
525.607
507.647
508.963
496.934
497.164
486.986
487.298
465.809
636.52
607.362
772.983
461.259
572.279
565.585
1159.6
1154.21
509.906
547.275
1020.73
1100.76
933.236
495.357
505.642
480.035
482.568
473.463
478.037
469.81
471.896
467.241
468.472
464.673
466.006
1009.49
1106.2
462.147
463.527
474.895
473.274
468.234
613.815
462.745
463.82
463.687
478.48
465.051
463.525
966.672
464.273
863.996
487.277
466.452
467.905
467.119
466.781
468.887
497.769
466.5
465.709
465.475
481.642
653.594
466.122
469.246
470.092
465.163
476.735
485.933
878.9
472.019
760.326
701.058
536.499
495.882
494.838
464.55
467.522
466.626
473.947
472.16
492.779
486.389
513.327
511.357
523.246
526.001
539.643
539.875
548.993
550.229
548.975
550.871
549.737
546.954
538.002
539.523
524.479
525.086
510.707
508.718
489.981
494.98
482.482
475.1
486.328
463.535
594.842
564.148
1122.65
533.638
591.547
491.055
483.969
497.365
475.234
481.469
471.791
474.051
468.567
467.945
470.822
1041.56
1086.19
505.888
505.823
529.704
990.153
996.106
468.648
464.414
470.339
469.846
466.065
470.996
469.013
470.39
838.334
467.567
604.839
728.31
647.755
728.16
521.311
468.866
473.882
469.175
477.297
1136.88
1121.43
986.84
965.156
470.523
470.38
467.285
472.229
472.466
477.051
476.389
558.125
705.153
788.939
742.751
474.474
936.867
475.092
475.662
493.093
493.065
513.593
516.64
530.807
528.392
544.483
546.375
558.801
558.532
558.671
560.218
543.938
556.982
536.646
537.924
524.107
525.41
508.722
509.063
496.905
496.644
490.416
485.114
523.883
555.293
506.434
852.733
831.217
491.687
492.027
489.422
610.875
611.199
473.917
1114.07
476.081
702.314
469.272
474.148
475.177
473.489
481.035
543.994
947.877
1000.97
483.233
478.284
485.644
895.773
839.38
478.927
477.862
486.284
584.596
576.144
689.265
508.865
540.587
511.854
534.904
735.88
725.129
765.447
498.58
493.311
521.482
518.239
538.822
537.768
552.777
557.811
565.722
566.402
572.274
572.577
562.859
563.456
542.45
542.901
527.329
530.677
513.584
520.471
495.922
496.826
482.247
476.032
514.035
533.086
478.202
478.634
474.378
655.239
599.53
668.033
649.54
728.53
706.688
979.924
971.112
974.414
643.856
478.571
493.013
506.361
597.202
497.227
502.189
513.519
484.379
560.544
545.463
816.293
769.126
758.92
880.508
572.916
485.446
483.941
482.93
618.156
486.798
616.137
656.794
531.781
485.891
498.516
519.24
520.252
546.648
540.135
566.707
570.869
586.361
587.426
594.376
596.251
584.464
585.483
570.019
570.797
546.954
546.807
589.44
672.06
638.228
604.987
568.928
482.367
514.58
536.055
492.389
527.08
493.25
725.664
675.427
821.429
889.35
907.196
861.146
865.012
505.344
510.427
538.987
543.24
560.481
561.231
609.842
604.433
632.874
634.751
615.876
629.578
601.537
579.933
548.511
612.782
608.894
480.238
699.649
646.004
794.951
524.59
536.815
534.859
546.57
555.022
586.175
488.658
646.789
756.839
744.909
642.911
680.086
676.942
666.759
804.364
761.861
798.001
673.031
554.249
506.744
545.674
573.591
583.481
607.547
697.518
601.887
696.328
459.304
459.304
459.304
459.304
459.304
459.304
459.304
459.304
459.304
459.304
459.304
459.304
459.304
459.304
459.304
459.304
459.304
459.304
459.304
459.304
459.304
459.304
459.304
459.304
459.304
459.304
459.304
459.304
459.303
459.303
459.303
459.303
459.303
459.304
459.304
459.304
459.304
459.304
459.304
459.304
459.304
459.304
459.304
459.304
459.304
459.304
459.304
459.304
459.304
459.303
459.303
459.303
459.303
459.303
459.303
459.303
459.303
459.303
459.303
459.303
459.303
459.303
459.303
459.303
459.303
459.303
459.303
459.304
459.303
459.304
459.304
459.304
459.304
459.304
459.304
459.304
459.304
459.304
459.304
459.304
459.304
459.304
459.304
459.304
459.304
459.304
459.304
459.303
459.303
459.303
459.303
459.303
459.303
459.303
459.303
459.303
459.303
459.303
459.303
459.303
459.303
459.303
459.303
459.303
459.303
459.303
459.303
459.303
459.303
459.303
459.303
459.303
459.303
459.303
459.303
459.303
459.303
459.303
459.303
459.303
459.303
459.303
459.303
459.303
459.303
459.304
459.303
459.303
459.303
459.303
459.303
459.303
459.304
459.304
459.304
459.304
459.304
459.304
459.304
459.304
459.304
459.304
459.304
459.304
459.304
459.303
459.304
459.303
459.303
459.303
459.303
459.304
459.303
459.303
459.304
459.304
459.304
459.304
459.304
459.304
459.304
459.304
459.304
459.304
459.304
459.304
459.304
459.304
459.304
459.304
459.304
459.304
459.304
459.304
459.304
459.304
459.304
459.303
459.303
459.304
459.303
459.303
459.304
459.303
459.303
459.304
459.304
459.304
459.304
459.304
459.304
459.304
459.304
459.304
459.304
459.304
459.304
459.304
459.304
459.304
459.304
459.304
459.304
459.304
459.304
459.304
459.304
459.303
459.303
459.303
459.303
459.304
459.303
459.303
459.303
459.303
459.303
459.303
459.303
459.303
459.303
459.303
459.303
459.303
459.303
459.303
459.303
459.303
459.303
459.303
459.303
459.304
459.303
459.304
459.304
459.304
459.304
459.304
459.304
459.304
459.304
459.304
459.304
459.304
459.304
459.304
459.304
459.304
459.304
459.304
459.304
459.304
459.303
459.303
459.304
459.303
459.303
459.303
459.303
459.303
459.303
459.303
459.303
459.303
459.303
459.303
459.303
459.303
459.303
459.303
459.303
459.303
459.303
459.303
459.303
459.303
459.303
459.303
459.303
459.303
459.303
459.303
459.303
459.303
459.303
459.303
459.303
459.304
459.303
459.303
459.303
459.304
459.304
459.304
459.304
459.303
459.303
459.303
459.304
459.304
459.304
459.304
459.304
459.304
459.304
459.304
459.304
459.304
459.304
459.303
459.304
459.304
459.304
459.304
459.304
459.304
459.304
459.304
459.304
459.304
459.304
459.303
459.304
459.304
459.304
459.304
459.304
459.304
459.304
459.304
459.304
459.304
459.304
459.304
459.303
459.304
459.304
459.303
459.304
459.304
459.304
459.304
459.304
459.304
459.303
459.303
459.303
459.303
459.303
459.303
459.303
459.303
459.303
459.303
459.303
459.303
459.303
459.304
459.304
459.304
459.304
459.304
459.304
459.304
459.304
459.304
459.304
459.304
459.304
459.304
459.304
459.303
459.303
459.303
459.303
459.303
459.303
459.303
459.303
459.303
459.303
459.303
459.303
459.303
459.303
459.303
459.303
459.303
459.303
459.303
459.303
459.303
459.303
459.303
459.303
459.303
459.303
459.303
459.303
459.303
459.303
459.304
459.304
459.304
459.304
459.304
459.304
459.304
459.304
459.304
459.304
459.304
459.303
459.304
459.303
459.303
459.303
459.303
459.304
459.303
459.304
459.303
459.304
459.304
459.303
459.303
459.304
459.304
459.304
459.304
459.304
459.304
459.304
459.304
459.304
459.304
459.304
459.304
459.304
459.303
459.303
459.303
459.303
459.304
459.304
459.304
459.304
459.304
459.303
459.304
459.304
459.304
459.304
459.303
459.303
459.303
459.303
459.303
459.303
459.303
459.303
459.303
459.304
459.303
459.304
459.304
459.304
459.304
459.304
459.304
459.304
459.304
459.304
459.304
459.304
459.304
459.303
459.303
459.303
459.303
459.303
459.303
459.303
459.303
459.303
459.303
459.303
459.303
459.303
459.303
459.303
459.303
459.303
459.303
459.303
459.303
459.303
459.303
459.303
459.303
459.304
459.304
459.304
459.303
459.303
459.304
459.304
459.303
459.303
459.303
459.303
459.304
459.304
459.304
459.304
459.303
459.303
459.304
459.303
459.304
459.304
459.304
459.304
459.304
459.304
459.303
459.304
459.304
459.304
459.303
459.304
459.304
459.304
459.304
459.303
459.304
459.304
459.304
459.304
459.303
459.303
459.304
459.304
459.304
459.303
459.303
459.303
459.303
459.303
459.303
459.303
459.303
459.304
459.304
459.304
459.304
459.304
459.304
459.304
459.304
459.304
459.304
459.304
459.304
459.304
459.303
459.304
459.304
459.304
459.304
459.303
459.303
459.303
459.303
459.303
459.303
459.303
459.303
459.303
459.303
459.303
459.303
459.303
459.303
459.303
459.303
459.303
459.303
459.304
459.303
459.304
459.304
459.304
459.304
459.304
459.304
459.304
459.304
459.304
459.303
459.303
459.303
459.304
459.303
459.303
459.304
459.304
459.304
459.304
459.304
459.303
459.304
459.304
459.303
459.303
459.304
459.304
459.304
459.304
459.304
459.303
459.304
459.304
459.304
459.303
459.303
459.303
459.304
459.304
459.303
459.303
459.303
459.303
459.303
459.303
459.304
459.303
459.304
459.304
459.304
459.304
459.304
459.304
459.304
459.304
459.304
459.303
459.303
459.303
459.303
459.303
459.303
459.303
459.303
459.303
459.303
459.303
459.303
459.303
459.304
459.304
459.304
459.304
459.303
459.303
459.303
459.304
459.304
459.304
459.303
459.303
459.303
459.304
459.304
459.304
459.304
459.304
459.304
459.304
459.304
459.304
459.304
459.304
459.304
459.304
459.304
459.303
459.304
459.304
459.303
459.303
459.303
459.303
459.304
459.304
459.304
459.304
459.304
459.304
459.304
459.304
459.304
459.303
459.304
459.303
459.303
459.303
459.303
459.303
459.303
459.303
459.303
459.304
459.304
459.304
459.304
459.304
459.304
459.303
459.303
459.303
459.304
459.304
459.304
459.304
459.303
459.303
459.303
459.304
459.304
459.304
459.304
459.304
459.304
459.304
459.304
459.304
459.304
459.304
459.303
459.304
459.303
459.303
459.304
459.304
459.304
459.304
459.303
459.303
459.303
459.303
459.304
459.304
459.304
459.304
459.303
459.304
459.304
459.304
459.304
459.304
459.304
459.304
459.303
459.304
459.304
459.304
459.304
459.304
459.304
459.304
459.304
459.304
459.304
459.304
459.304
459.303
459.304
459.304
459.304
459.304
459.304
459.304
459.304
459.304
459.304
459.304
459.304
459.304
459.304
459.304
459.304
459.304
459.304
459.304
459.304
459.304
459.304
459.305
459.303
459.303
459.303
459.303
459.303
459.303
459.303
459.303
459.303
459.303
459.303
459.303
459.303
459.303
459.303
459.303
459.303
459.303
459.303
459.303
459.303
459.303
459.303
459.303
459.303
459.303
459.303
459.303
459.303
459.303
459.303
459.303
459.303
459.303
459.304
459.303
459.304
459.304
459.304
459.304
459.304
459.304
459.304
459.304
459.304
459.304
459.304
459.304
459.304
459.304
459.304
459.304
459.304
459.304
459.304
459.304
459.304
459.304
459.304
459.304
459.304
459.304
459.304
459.304
459.304
459.304
459.304
459.303
459.303
459.303
459.303
459.303
459.304
459.304
459.304
459.304
459.304
459.304
459.303
459.303
459.304
459.304
459.304
459.304
459.304
459.304
459.304
459.304
459.304
459.304
459.303
459.303
459.303
459.303
459.303
459.303
459.303
459.304
459.304
459.304
459.304
459.304
459.304
459.304
459.304
459.304
459.304
459.303
459.303
459.303
459.303
459.304
459.304
459.304
459.304
459.304
459.304
459.304
459.304
459.304
459.304
459.304
459.304
459.304
459.303
459.303
459.303
459.303
459.303
459.303
459.303
459.303
459.303
459.303
459.303
459.303
459.303
459.303
459.303
459.303
459.303
459.303
459.303
459.303
459.303
459.303
459.303
459.303
459.303
459.303
459.303
459.303
459.303
459.303
459.303
459.303
459.303
459.303
459.303
459.303
459.304
459.303
459.304
459.304
459.304
459.304
459.304
459.304
459.304
459.304
459.304
459.304
459.304
459.304
459.304
459.304
459.304
459.304
459.304
459.304
459.304
459.304
459.304
459.304
459.304
459.304
459.304
459.304
459.304
459.304
459.304
459.304
459.303
459.304
459.304
459.304
459.303
459.304
459.304
459.303
459.303
459.303
459.303
459.303
459.303
459.303
459.303
459.304
459.304
459.304
459.304
459.304
459.304
459.304
459.304
459.304
459.304
459.304
459.304
459.304
459.304
459.304
459.304
459.304
459.303
459.303
459.303
459.303
459.304
459.304
459.304
459.304
459.304
459.304
459.304
459.304
459.304
459.303
459.303
459.303
459.303
459.303
459.303
459.303
459.303
459.303
459.303
459.303
459.303
459.303
459.303
459.303
459.303
459.303
459.303
459.303
459.303
459.303
459.304
459.303
459.304
459.304
459.304
459.304
459.304
459.304
459.304
459.304
459.304
459.304
459.304
459.304
459.304
459.304
459.304
459.304
459.304
459.304
459.304
459.304
459.304
459.303
459.303
459.304
459.304
459.304
459.304
459.304
459.304
459.303
459.303
459.303
459.304
459.304
459.303
459.303
459.304
459.304
459.304
459.303
459.304
459.304
459.304
459.304
459.304
459.304
459.304
459.304
459.303
459.304
459.303
459.304
459.304
459.304
459.303
459.303
459.304
459.304
459.304
459.304
459.303
459.303
459.303
459.303
459.303
459.303
459.304
459.304
459.303
459.303
459.303
459.303
459.303
459.303
459.303
459.303
459.304
459.303
459.304
459.304
459.304
459.304
459.304
459.304
459.304
459.304
459.304
459.304
459.304
459.304
459.304
459.304
459.304
459.304
459.303
459.303
459.303
459.303
459.303
459.304
459.304
459.303
459.303
459.303
459.303
459.303
459.304
459.304
459.303
459.304
459.304
459.303
459.304
459.304
459.303
459.303
459.303
459.304
459.304
459.304
459.304
459.304
459.304
459.303
459.304
459.304
459.304
459.303
459.303
459.304
459.304
459.303
459.303
459.304
459.304
459.303
459.303
459.303
459.303
459.304
459.304
459.304
459.303
459.303
459.303
459.303
459.303
459.303
459.304
459.304
459.304
459.304
459.304
459.304
459.304
459.304
459.304
459.304
459.304
459.304
459.304
459.303
459.303
459.304
459.304
459.304
459.304
459.304
459.304
459.304
459.304
459.304
459.303
459.303
459.304
459.304
459.304
459.304
459.303
459.303
459.303
459.304
459.304
459.304
459.304
459.303
459.303
459.303
459.303
459.303
459.303
459.303
459.303
459.303
459.303
459.303
459.303
459.303
459.304
459.303
459.304
459.304
459.304
459.304
459.304
459.304
459.304
459.304
459.304
459.304
459.304
459.304
459.304
459.304
459.303
459.303
459.303
459.304
459.304
459.304
459.303
459.303
459.304
459.304
459.304
459.304
459.304
459.304
459.304
459.303
459.303
459.304
459.304
459.304
459.304
459.303
459.303
459.303
459.304
459.304
459.304
459.304
459.303
459.303
459.304
459.304
459.304
459.304
459.304
459.304
459.303
459.303
459.303
459.303
459.303
459.304
459.304
459.304
459.304
459.304
459.303
459.303
459.304
459.304
459.303
459.304
459.303
459.303
459.304
459.303
459.304
459.304
459.304
459.304
459.304
459.304
459.304
459.304
459.304
459.305
459.305
459.305
459.304
459.305
459.305
459.304
459.304
459.304
459.305
459.305
459.305
459.305
459.305
459.305
459.306
459.305
459.305
459.306
459.304
459.304
459.304
459.304
459.304
459.305
459.305
459.305
459.305
459.305
459.304
459.305
459.304
459.304
459.304
459.305
459.304
459.305
459.305
459.305
459.304
459.304
459.304
459.305
459.304
459.305
459.305
459.305
459.305
459.304
459.304
460.227
459.831
459.443
459.376
459.333
459.462
459.414
459.365
459.391
459.468
459.802
459.669
459.495
459.673
459.482
459.357
459.638
459.359
459.686
459.897
459.419
459.885
459.355
459.642
459.601
459.63
459.462
459.495
459.497
459.413
459.407
459.434
459.477
459.501
459.303
459.303
459.303
459.303
459.303
459.303
459.303
459.303
459.303
459.303
459.303
459.303
459.303
459.303
459.303
459.303
459.303
459.303
459.303
459.303
459.303
459.303
459.303
459.303
459.303
459.303
459.303
459.303
459.303
459.303
459.303
459.303
459.303
459.303
459.303
459.303
459.303
459.303
459.303
459.303
459.303
459.303
459.303
459.303
459.303
459.303
459.303
459.303
459.303
459.303
459.303
459.303
459.303
459.303
459.303
459.303
459.303
459.303
459.303
459.303
459.303
459.303
459.303
459.303
459.303
459.303
459.303
459.303
459.303
459.303
459.303
459.303
459.303
459.303
459.303
459.303
459.303
459.303
459.303
459.303
459.303
459.303
459.303
459.303
459.303
459.303
459.303
459.303
459.303
459.303
459.303
459.303
459.303
459.303
459.303
459.303
459.303
459.303
459.303
459.303
459.303
459.303
459.303
459.303
459.303
459.303
459.303
459.303
459.303
459.303
459.303
459.303
459.303
459.303
459.303
459.303
459.303
459.303
459.303
459.303
459.303
459.303
459.303
459.303
459.303
459.303
459.303
459.303
459.303
459.303
459.303
459.303
459.303
459.303
459.303
459.303
459.303
459.303
459.303
459.303
459.303
459.303
459.303
459.303
459.303
459.303
459.303
459.303
459.303
459.303
459.303
459.303
459.303
459.303
459.303
459.303
459.303
459.303
459.303
459.303
459.303
459.303
459.303
459.303
459.303
459.303
459.303
459.303
459.303
459.303
459.303
459.303
459.303
459.303
459.303
459.303
459.303
459.303
459.303
459.303
459.303
459.303
459.303
459.303
459.303
459.303
459.303
459.303
459.303
459.303
459.303
459.303
459.303
459.303
459.303
459.303
459.303
459.303
459.303
459.303
459.303
459.303
459.303
459.303
459.303
459.303
459.303
459.303
459.303
459.303
459.303
459.303
459.303
459.303
459.303
459.303
459.303
459.303
459.303
459.303
459.303
459.303
459.303
459.303
459.303
459.303
459.303
459.303
459.303
459.303
459.303
459.303
459.303
459.303
459.303
459.303
459.303
459.303
459.303
459.303
459.303
459.303
459.303
459.303
459.303
459.303
459.303
459.303
459.303
459.303
459.303
459.303
459.303
459.303
459.303
459.303
459.303
459.303
459.303
459.303
459.303
459.303
459.303
459.303
459.303
459.303
459.303
459.303
459.303
459.303
459.303
459.303
459.303
459.303
459.303
459.303
459.303
459.303
459.303
459.303
459.303
459.303
459.303
459.303
459.303
459.303
459.303
459.303
459.303
459.303
459.303
459.303
459.303
459.303
459.303
459.303
459.303
459.303
459.303
459.303
459.303
459.303
459.303
459.303
459.303
459.303
459.303
459.303
459.303
459.303
459.303
459.303
459.303
459.303
459.303
459.303
459.303
459.303
459.303
459.303
459.303
459.303
459.303
459.303
459.303
459.303
459.303
459.303
459.303
459.303
459.303
459.303
459.303
459.303
459.303
459.303
459.303
459.303
459.303
459.303
459.303
459.303
459.303
459.303
459.303
459.303
459.303
459.303
459.303
459.303
459.303
459.303
459.303
459.303
459.303
459.303
459.303
459.303
459.303
459.303
459.303
459.303
459.303
459.303
459.303
459.303
459.303
459.303
459.303
459.303
459.303
459.303
459.303
459.303
459.303
459.303
459.303
459.303
459.303
459.303
459.303
459.303
459.303
459.303
459.303
459.303
459.303
459.303
459.303
459.303
459.303
459.303
459.303
459.303
459.303
459.303
459.303
459.303
459.303
459.303
459.303
459.303
459.303
459.303
459.303
459.303
459.303
459.303
459.303
459.303
459.303
459.303
1583.49
2225.17
2679.36
2398.52
2429.58
2740.73
2556.21
2661.87
2603.74
2618.25
2397.7
2789.67
2936.75
2933.08
2378.38
2639.64
1730.67
2011.13
1104.05
1396.82
864.462
967.214
635.298
716.664
556.592
591.165
520.22
523.749
500.289
506.875
481.229
484.954
472.661
473.25
466.555
469.295
462.899
464.625
461.238
462.729
460.655
460.284
461.153
461.665
461.292
461.06
461.792
462.466
463.205
463.636
464.014
464.137
466.741
464.951
467.9
469.326
474.225
474.329
479.249
479.842
488.988
488.132
494.084
494.211
503.41
503.766
507.158
510.999
509.214
514.459
512.455
515.833
511.459
468.911
464.758
462.299
461.623
464.323
473.873
485.039
511.41
522.348
530.067
523.767
468.972
1563.12
1838.43
1330.01
961.039
824.435
680.194
592.339
525.604
495.426
477.971
473.738
513.106
1914.54
1556.91
464.769
462.865
462.362
461.433
462.397
469.432
478.945
496.531
518.761
529.814
529.246
522.397
460.846
1696.93
1573.96
1139.68
913.79
742.21
631.041
556.675
508.704
486.839
472.9
508.703
462.614
466.358
478.593
494.584
518.094
529.578
529.919
1813.99
1219.43
935.747
747.137
646.051
559.201
515.127
487.738
519.888
530.619
527.157
1058.13
845.322
694.024
607.273
533.861
495.642
479.976
485.183
1832.35
473.184
464.087
461.56
462.416
1476.06
2026.27
2500.03
2944.51
2877.2
3003.22
2986.95
2997.48
3355.78
3261.69
3578.61
3183.44
3537.94
2418.31
2664.9
1575.37
2193.07
1040.36
1116.92
681.39
1030.66
577.098
658.646
515.622
556.109
508.947
516.138
483.491
498.42
474.766
479.44
468.183
469.955
462.734
465.624
460.847
1973.69
1975.95
461.846
464.001
462.475
466.497
466.707
466.212
468.009
466.649
467.935
471.076
471.646
479.413
477.871
485.561
486.356
498.915
496.882
505.717
506.272
517.337
521.815
519.102
520.071
519.872
520.902
522.036
524.493
1515.23
466.602
462.355
462.114
461.313
462.332
479.017
463.92
463.988
466.608
495.021
518.042
461.571
462.45
461.764
533.473
536.115
527.541
1810.58
1663.73
1002.48
523.03
472.79
472.942
478.007
1208
1037.73
2152.13
2172.56
2136.32
813.473
672.738
581.357
542.738
510.448
501.701
502.167
494.399
475.764
475.633
527.251
529.872
534.873
486.369
486.526
496.393
470.055
470.78
465.202
2208.72
513.285
511.469
520.678
461.076
460.924
462.063
461.496
1313.64
464.913
462.9
542.498
531.309
960.871
916.391
523.445
2655.15
616.99
615.914
527.639
731.585
581.96
508.574
501.076
481.407
476.081
750.163
844.062
533.708
534.826
676.147
2846.6
2682.33
3041.87
2896.62
2529.65
3880.3
3119.06
2528.07
3529.84
2190.85
2409.88
1184.1
1525.81
1056.95
1151.88
689.951
771.751
566.874
626.494
527.346
542.173
500.751
508.14
483.934
488.528
475.677
476.063
468.339
471.844
464.07
462.921
803.662
462.62
2219.07
466.426
465.991
468.839
470.416
469.766
470.417
476.586
474.085
488.774
486.929
497.684
498.955
508.493
511.588
528.117
519.111
531.445
540.214
533.652
541.351
535.585
536.18
535.559
533.613
536.059
465.896
463.659
1061.08
1279.32
615.455
945.92
908.669
855.907
538.486
2810.73
3023.81
2373.19
553.085
539.862
507.494
480.937
475.607
690.475
695.484
631.084
561.127