/*--------------------------------*- C++ -*----------------------------------*\
| =========                 |                                                 |
| \\      /  F ield         | OpenFOAM: The Open Source CFD Toolbox           |
|  \\    /   O peration     | Version:  v2012                                 |
|   \\  /    A nd           | Website:  www.openfoam.com                      |
|    \\/     M anipulation  |                                                 |
\*---------------------------------------------------------------------------*/
FoamFile
{
    version     2.0;
    format      ascii;
    class       volScalarField;
    location    "1.5";
    object      qr;
}
// * * * * * * * * * * * * * * * * * * * * * * * * * * * * * * * * * * * * * //

dimensions      [1 0 -3 0 0 0 0];


internalField   uniform 0;

boundaryField
{
    fire_inlet
    {
        type            calculated;
        value           nonuniform List<scalar> 
34
(
3574.11
5488.04
2305.18
4106.42
4222.56
4670.93
4304.72
4538.65
5729.18
7900.31
6666.8
10371.8
13507.3
10937.1
3375.11
6499.45
4332.55
6826.96
9545.5
7603.15
7820.57
5968.71
10975.4
13757.1
13624.6
14919.7
5601.45
13171.9
15741.4
12576.1
9914.53
7168.55
11481.2
14629.7
)
;
    }
    outlet
    {
        type            calculated;
        value           nonuniform List<scalar> 
400
(
0.00024294
0.000259855
0.00025985
0.000240081
0.000264552
0.000275252
0.000268652
0.000227537
0.000227906
0.000258254
0.000255773
0.000267452
0.000251831
0.000264988
0.000250045
0.000269276
0.000251036
0.000256367
0.000263587
0.000271156
0.000264073
0.000273679
0.00026787
0.000266373
0.000257661
0.000270415
0.000261211
0.000269236
0.000264979
0.000271492
0.000261243
0.000261869
0.000260837
0.000258865
0.000279623
0.000270975
0.000262849
0.00026343
0.000278315
0.000279419
0.000257221
0.000274177
0.000281745
0.000280363
0.000285363
0.000285134
0.00028192
0.00029087
0.000293973
0.00027614
0.000286104
0.000269287
0.000290395
0.000285517
0.00027783
0.000280176
0.000275772
0.000278963
0.000272305
0.000277537
0.00027956
0.0002815
0.00028043
0.000277029
0.000277908
0.000280333
0.000285449
0.000276962
0.000284309
0.000272995
0.00027996
0.000282322
0.000279564
0.00028381
0.000274011
0.000279873
0.000282577
0.000290485
0.000280576
0.000277632
0.000291865
0.000281177
0.000279083
0.000283344
0.000284444
0.000291064
0.000285042
0.000281447
0.000287967
0.000286625
0.000286906
0.000286748
0.000288822
0.000285558
0.00028691
0.000286605
0.000290194
0.000290518
0.000288575
0.000289173
0.000161206
0.000178304
0.000201218
0.000198415
0.00023314
0.000219691
0.000253123
0.000257381
0.000289569
0.000279066
0.000314899
0.00031423
0.000329911
0.000372778
0.000404669
0.000405605
0.000425038
0.000426889
0.000455943
0.000452953
0.000486335
0.000473826
0.000511512
0.000499623
0.000528987
0.000529526
0.000552234
0.000540999
0.00055583
0.000580658
0.000571991
0.000545962
0.000570766
0.000299679
0.000381373
0.000437005
0.000513012
0.000553093
0.000533312
0.000570456
0.000197265
0.000228911
0.000252024
0.00026507
0.000310016
0.000342052
0.000215231
0.000211013
0.000384317
0.000416595
0.000436186
0.000485694
0.000482016
0.000342965
0.00023108
0.000236512
0.000255265
0.000305378
0.000176084
0.000268662
0.00029858
0.000243082
0.000522752
0.000320533
0.000279025
0.000244959
0.000293545
0.000257607
0.000250188
0.000276104
0.000258517
0.000298938
0.000288496
0.000335637
0.000332705
0.000357743
0.000199914
0.0004137
0.00044485
0.000426171
0.000474688
0.000449616
0.000493716
0.000472551
0.000511035
0.000494983
0.000532321
0.000531957
0.000562405
0.000530699
0.000576345
0.000208844
0.000434587
0.000348951
0.000497315
0.000330531
0.00034934
0.000273009
0.000283362
0.000261396
0.000272901
0.000281998
0.000307755
0.000334065
0.000335071
0.000228237
0.000224776
0.000367913
0.000360846
0.000249755
0.000394517
0.000381792
0.000522939
0.00039419
0.00046394
0.00047532
0.000241524
0.000411072
0.000312503
0.000485358
0.000538497
0.000554253
0.000323293
0.000355833
0.000388703
0.000338389
0.000262467
0.00041737
0.000386687
0.000274527
0.000435951
0.000416609
0.000461533
0.000436617
0.000486852
0.000469235
0.000505064
0.000485255
0.000513327
0.000518015
0.000504812
0.000289545
0.000351424
0.000467576
0.000486241
0.000320718
0.000380962
0.000371428
0.000394376
0.000338998
0.000338998
0.000353453
0.000295274
0.000294591
0.000297681
0.000432158
0.000462555
0.000311902
0.000318077
0.000326712
0.000373917
0.00035433
0.00039296
0.000380162
0.000428136
0.000402908
0.000443949
0.00043095
0.000491888
0.000463115
0.000473709
0.000420919
0.000395583
0.000442134
0.000323826
0.000328265
0.000449652
0.000390586
0.000352629
0.000343009
0.000328043
0.000437281
0.000410973
0.000389525
0.000360397
0.000414208
0.000332236
0.000382103
0.000374726
0.000349651
610.249
386.591
268.576
160.236
225.692
246.295
242.696
209.474
1102.98
922.314
646.546
823.575
517.8
618.918
390.293
454.083
1029.83
680.244
833.596
749.426
926.804
861.574
882.128
876.846
1076.96
1051.4
960.19
1066.41
961.055
191.708
321.687
327.946
205.218
245.808
248.724
284.604
264.8
271.195
192.842
360.185
290.934
610.114
247.565
285.837
308.624
359.195
298.684
210.975
308.868
346.503
326.327
399.441
409.54
449.147
463.729
895.022
950.945
673.022
848.292
468.285
772.74
949.316
839.668
992.676
940.356
254.876
506.087
325.227
409.541
239.683
416.231
370.822
639.765
513.167
309.362
647.93
554.589
915.011
842.733
911.648
613.72
619.949
343.776
531.508
735.265
755.954
736.209
805.799
689.993
432.801
584.288
420.152
580.657
767.68
797.643
782.912
768.758
523.312
523.468
551.666
625.19
398.767
449.66
602.04
749.698
560.854
633.783
482.739
562.074
668.266
)
;
    }
    base
    {
        type            calculated;
        value           nonuniform List<scalar> 
14244
(
327.41
183.303
49.324
181.502
354.187
294.942
178.003
66.7568
29.9017
12.941
4.38764
1.91886
0.747628
0.653974
0.573444
0.562417
0.578038
0.612916
1.03515
1.23158
1.96181
1.89153
2.73787
5.32017
10.069
9.31776
4.02912
2.39089
2.94546
1.4356
2.30348
1.73033
1.77212
2.52363
2.29613
4.35091
4.49665
9.25878
9.35469
13.5965
13.7154
27.9176
23.7155
43.55
42.5732
55.813
54.8099
68.3872
66.4129
75.8054
77.2887
82.5269
82.6956
83.3801
84.2761
77.7209
80.6952
66.196
71.7937
60.0782
61.9924
47.6688
50.2159
38.92
41.769
29.5486
30.9417
21.5483
21.7377
12.5172
14.8583
7.26038
381.206
441.677
315.592
504.863
420.541
458.195
436.457
320.337
304.685
254.705
224.83
147.396
148.813
88.2658
80.2651
52.4977
54.7664
31.7836
30.6144
23.541
24.5105
18.6437
21.9352
15.316
15.4199
12.4951
13.0125
10.4954
8.11601
10.2823
10.2042
98.6903
69.34
222.788
383.214
239.177
112.025
45.4525
19.6335
7.74054
2.99763
1.31799
1.79042
1.4575
0.57136
0.575361
0.619734
0.645509
0.664404
0.911485
1.0597
1.79153
2.06728
2.49582
4.02517
54.8725
6.4268
73.5296
311.418
112.906
202.675
48.408
163.727
339.49
243.413
110.363
53.5937
24.9609
8.16979
3.75018
1.8059
1.1275
2.26649
2.56869
4.01887
6.07181
317.136
182.921
89.1319
39.4904
13.7426
5.71739
2.69534
1.09483
5.29364
3.28786
1.443
2.44246
238.982
319.353
187.64
344.693
370.706
169.12
181.58
92.171
43.6122
13.5209
5.7994
2.19162
1.00507
0.852157
1.2625
6.96092
1.94058
2.50825
1.02527
1.37398
2.18012
3.09044
178.297
5.50171
6.6237
1.60947
1.73265
1.96494
3.4008
4.41936
9.64434
87.921
116.878
3.16888
4.95716
2.25362
2.88608
1.65784
2.50926
2.25584
2.2631
3.83971
3.95226
9.7826
9.88964
12.4568
12.2645
24.1839
24.339
45.7031
40.291
55.9911
53.741
70.6935
71.1028
80.9989
82.8463
86.8215
87.3457
86.7906
87.3073
79.6972
83.0627
71.7052
72.987
62.6106
62.9394
49.3406
49.2739
39.9912
38.5564
28.3935
28.6053
21.3484
21.4808
13.539
10.1447
13.4993
266.078
60.1725
56.2755
353.935
405.638
306.695
273.04
291.262
178.552
176.254
136.364
131.424
60.1046
68.6512
43.0634
46.6429
30.8893
28.0423
20.8539
19.8966
18.3734
16.4595
13.5401
13.1141
9.88558
10.2049
0.74172
1.1698
2.67736
3.53266
271.414
326.355
76.746
60.5401
288.846
139.048
57.7975
25.6293
8.85563
3.33404
1.44355
45.0764
0.71729
0.78065
0.948349
68.2294
177.487
2.59699
7.21983
216.574
2.64345
19.0693
7.20695
42.3953
333.004
114.632
9.68026
1.13623
2.53306
3.55554
8.70364
1.70062
4.06686
12.3004
30.9534
305.029
268.811
3.25765
124.379
315.34
4.27268
5.97376
244.169
254.04
422.284
422.934
464.655
1.64105
37.1789
267.769
363.817
13.7781
3.43926
4.36467
4.22888
2.84043
2.25583
58.7747
4.91858
147.407
129.802
454.846
491.325
3.11371
4.55598
10.5731
9.04371
111.14
234.24
3.02168
5.46591
65.7895
63.2945
2.07202
2.65746
2.48797
2.68181
4.26898
4.18635
9.85809
7.90499
13.5031
13.5626
25.4704
25.62
40.6664
40.9023
58.0629
58.4435
74.5466
71.7297
85.4697
85.8292
91.77
92.8562
89.1627
89.9123
82.2279
82.876
71.9613
72.4496
61.1472
61.5019
46.9414
45.4304
36.674
41.6531
27.0514
27.7412
18.7319
20.3958
90.142
93.3055
195.893
2.88947
3.865
95.0884
90.288
156.455
136.75
120.84
76.4957
74.4787
42.9327
50.5313
24.2589
29.1651
17.248
18.9993
12.894
13.1958
10.4211
10.0073
9.34533
9.21908
6.99123
4.4133
6.46525
1.45663
1.0812
1.5898
0.880594
4.2713
4.90622
5.52669
21.5614
23.3808
148.089
453.525
338.388
62.6046
55.6422
13.2992
3.6264
30.4464
2.05685
0.925405
1.32346
1.6376
133.506
8.20363
2.18412
3.04525
1.70695
1.61993
12.0159
7.31119
2.0956
13.4992
104.74
24.5823
163.847
7.87834
259.299
263.303
494.514
399.902
375.555
5.76578
39.0634
37.3266
2.93968
2.25661
590.347
571.814
5.08506
9.42078
6.20199
265.16
75.447
73.5479
59.344
2.56042
3.37265
2.80618
3.17714
4.5476
4.84592
7.54675
7.60826
15.8326
15.6318
26.571
26.6845
42.8055
43.079
59.3364
59.8468
73.9319
74.3852
85.9896
86.4992
89.9006
90.5036
85.8541
87.7097
75.6619
79.6712
70.3533
71.3563
55.8726
56.2206
41.6042
41.9429
32.2361
32.9471
27.3465
18.3445
20.6834
168.133
197.009
75.8723
4.06191
5.72933
102.808
85.0065
645.039
704.482
68.7896
59.3229
29.525
38.113
19.6478
24.4038
16.0044
14.9725
10.8994
8.8988
7.73439
7.61887
6.40582
6.06331
98.9042
395.337
615.024
3.39057
144.652
102.845
494.364
67.7183
12.4213
1.64958
2.30159
14.0777
2.79671
2.74636
6.94563
4.65249
11.2832
12.6123
355.473
23.8774
12.1788
4.56646
3.5753
4.85635
4.06454
5.60344
1.86059
3.67476
2.5225
6.23808
8.8646
5.78545
5.95247
7.92255
4.47435
163.318
81.9611
118.201
12.9875
10.8459
18.8952
5.97286
45.6547
407.955
662.51
4.72455
426.212
321.806
306.076
76.0716
72.6676
3.39247
4.1812
5.5145
4.77511
8.39703
8.19129
16.2167
16.5777
30.7584
30.9786
46.4732
44.5826
62.8924
63.993
81.5532
81.3795
91.799
92.3447
92.2285
90.6746
88.2573
88.5444
79.7026
80.7484
63.0426
66.2951
48.3367
49.6527
37.6241
37.8543
27.6773
27.9887
6.50263
177.202
148.046
313.661
1.95302
112.967
106.273
700.265
694.877
50.5962
87.963
561.407
641.433
473.912
36.048
46.3321
20.7268
23.2599
14.1558
18.7296
10.5035
12.5886
7.93429
9.16511
5.36678
6.69952
550.157
646.873
2.8404
4.22031
15.5877
13.9668
8.92724
154.501
3.43844
4.51335
4.38028
19.172
5.74456
4.21826
507.345
4.96696
404.675
27.9691
7.14517
8.59837
7.81179
7.47397
9.57985
38.4601
7.19359
6.40258
6.1683
22.3345
194.279
6.81572
9.9388
10.7855
5.85671
17.4275
26.6254
419.579
12.712
301.008
241.742
77.1887
36.5735
35.5295
5.24327
8.21484
7.31888
14.6389
12.8521
33.4689
27.0793
54.0151
52.0456
63.9335
66.6884
80.3295
80.5615
89.6793
90.9154
89.6609
91.5572
90.4233
87.641
78.689
80.2099
65.1668
65.7744
51.3959
49.4077
30.6717
35.6708
23.1732
15.7925
27.0192
4.22813
135.53
104.837
663.321
74.3263
132.233
31.7464
24.6605
38.0554
15.9261
22.1611
12.4836
14.7432
9.25981
8.63798
11.5141
582.23
626.864
46.5777
46.5135
70.3932
530.826
536.779
9.34057
5.10769
11.032
10.5393
6.75837
11.6892
9.70634
11.0828
379.014
8.26047
145.526
268.99
188.438
268.84
62.001
9.55893
14.5746
9.86831
17.9893
677.554
662.097
527.515
505.832
11.2154
11.0731
7.97826
12.922
13.159
17.7432
17.0817
98.8143
245.837
329.62
283.434
15.1672
477.542
15.7835
16.3534
33.7827
33.7548
54.2816
57.3276
71.4937
69.0796
85.1692
87.0615
99.4861
99.2176
99.3562
100.904
84.6243
97.6675
77.3334
78.611
64.7956
66.0977
49.4119
49.7528
37.595
37.3347
31.108
25.8058
64.573
95.9824
47.1255
393.41
371.895
32.3776
32.718
30.1126
151.562
151.886
14.6096
654.744
16.7738
242.998
9.96548
14.8409
15.8697
14.1815
21.7276
84.6821
488.552
541.64
23.9247
18.9763
26.3352
436.451
380.059
19.6184
18.5531
26.9748
125.282
116.831
229.948
49.5548
81.275
52.5443
75.5922
276.561
265.81
306.127
39.2692
34.0016
62.1693
58.9266
79.5086
78.4542
93.4627
98.4968
106.407
107.087
112.959
113.262
103.544
104.141
83.1369
83.5877
68.0167
71.3645
54.2732
61.1598
36.6124
37.5162
22.9397
16.7243
54.7247
73.7739
18.8944
19.3263
15.0708
195.923
140.217
208.718
190.226
269.213
247.372
520.6
511.787
515.09
184.541
19.2634
33.7044
47.0516
137.888
37.9171
42.8784
54.2082
25.071
101.233
86.1523
356.973
309.808
299.6
421.185
113.603
26.1378
24.6331
23.6215
158.842
27.4892
156.821
197.478
72.4708
26.5822
39.2065
59.9281
60.9403
87.335
80.8222
107.393
111.554
127.045
128.11
135.06
136.935
125.149
126.168
110.705
111.483
87.6409
87.494
130.126
212.744
178.913
145.674
109.616
23.0594
55.2704
76.7444
33.0803
67.7688
33.9418
266.346
216.111
362.108
430.027
447.873
401.824
405.69
46.0346
51.1174
79.6748
83.927
101.167
101.917
150.525
145.117
173.557
175.434
156.56
170.262
142.221
120.619
89.1986
153.467
149.58
20.9304
240.331
186.687
335.629
65.2785
77.5038
75.5482
87.2582
95.7091
126.862
29.3494
187.473
297.519
285.59
183.596
220.768
217.623
207.442
345.043
302.541
338.68
213.713
94.9374
47.4351
86.3628
114.278
124.167
148.233
238.199
142.573
237.009
-0.000154155
-0.000176599
-0.000205522
-0.00022616
-0.000234166
-0.000242418
-0.000245142
-0.000249881
-0.00024616
-0.000252102
-0.000245048
-0.000254434
-0.000240649
-0.000191011
-0.000132262
-0.00018951
-0.000192002
-0.000205688
-0.000203769
-0.000212426
-0.000201804
-0.00021489
-0.000201523
-0.000185091
-0.000146791
-0.000160616
-0.000205106
-0.000214008
4.18953e-05
4.61524e-05
3.86868e-05
2.74637e-05
1.90344e-05
1.90984e-05
1.25519e-05
6.57995e-06
-4.33867e-06
-2.06587e-05
-3.25993e-05
-3.45338e-05
-3.28244e-05
-3.65403e-05
-4.30821e-05
-4.269e-05
-4.0668e-05
-3.41798e-05
-2.88784e-05
-2.24121e-05
-1.86751e-05
3.68671e-05
4.17438e-05
4.24136e-05
4.17579e-05
4.03522e-05
4.01254e-05
3.73425e-05
3.8155e-05
3.50252e-05
3.62235e-05
3.03946e-05
3.31242e-05
2.56035e-05
2.62202e-05
2.25485e-05
2.30288e-05
1.77969e-05
2.02467e-05
1.34647e-05
1.53652e-05
8.39456e-06
1.09376e-05
1.66789e-06
7.10095e-06
-3.79805e-06
-4.87067e-07
-8.19196e-06
-6.57227e-06
-1.41388e-05
-1.07089e-05
-1.78151e-05
-1.67402e-05
-2.01764e-05
-1.9606e-05
-2.28648e-05
-2.24112e-05
-2.1708e-05
-2.24002e-05
3.93278e-05
4.70149e-05
5.50586e-05
5.33895e-05
6.40963e-05
5.99311e-05
7.40636e-05
6.91352e-05
8.12403e-05
8.07796e-05
9.05937e-05
8.97009e-05
9.8805e-05
9.40983e-05
0.000100782
0.000101977
0.000100873
0.000101889
0.000100236
0.000100149
9.78831e-05
9.78039e-05
9.27473e-05
9.37131e-05
8.60028e-05
8.81256e-05
7.41248e-05
7.89611e-05
6.7105e-05
7.49764e-05
6.12965e-05
6.84113e-05
5.50394e-05
6.00653e-05
5.0971e-05
5.39108e-05
4.29796e-05
4.7963e-05
-2.02573e-05
4.25727e-05
4.27749e-05
4.17444e-05
3.21572e-05
2.32928e-05
1.6619e-05
9.08654e-06
9.84728e-06
-3.68123e-06
-1.16113e-05
-2.80406e-05
-3.51188e-05
-3.55231e-05
-3.98292e-05
-4.14864e-05
-4.26965e-05
-3.55845e-05
-3.38835e-05
-2.56631e-05
3.61728e-05
-1.91557e-05
3.70266e-05
4.57911e-05
1.74424e-05
4.51698e-05
-2.2874e-05
2.7787e-05
2.17807e-05
1.54783e-05
1.01247e-05
8.7151e-07
-1.16021e-05
-2.56128e-05
-3.66576e-05
-4.20209e-05
-4.45974e-05
-4.45353e-05
-4.23534e-05
-3.71998e-05
-2.98377e-05
1.08177e-05
4.13166e-06
-5.02537e-06
-2.23424e-05
-2.85475e-05
-4.43088e-05
-4.52367e-05
-4.15356e-05
-3.82138e-05
-3.23503e-05
-2.6589e-05
2.28067e-05
3.2186e-05
-3.71672e-05
4.07213e-05
4.32949e-05
-3.62142e-05
2.05712e-05
3.22327e-05
1.48772e-05
1.33901e-05
2.89749e-06
-1.9437e-06
1.27619e-06
-5.40606e-06
-2.00426e-05
-2.51619e-05
-2.06121e-05
-2.84694e-05
-4.47569e-05
-3.4425e-05
-4.09373e-05
-4.02452e-05
-4.57738e-05
-4.22496e-05
-3.76021e-05
-3.26975e-05
-2.74548e-05
1.45832e-05
1.78717e-05
1.3684e-05
2.25703e-05
3.72519e-05
4.10094e-05
3.58702e-05
-1.98924e-05
4.54658e-05
4.42324e-05
4.84955e-05
5.3086e-05
4.49619e-05
4.232e-05
4.3663e-05
4.01115e-05
4.19248e-05
3.88589e-05
3.96329e-05
3.53375e-05
3.49007e-05
2.92283e-05
3.17308e-05
2.67601e-05
2.97792e-05
2.3283e-05
2.32259e-05
1.98008e-05
2.1582e-05
1.5139e-05
1.77883e-05
1.06542e-05
1.44389e-05
2.89259e-06
9.56909e-06
-4.75537e-06
2.38419e-06
-8.39243e-06
-5.57815e-06
-1.56806e-05
-8.677e-06
-1.92689e-05
-1.68658e-05
-2.4094e-05
-2.07305e-05
-2.29737e-05
-2.17257e-05
-2.45624e-05
1.53672e-05
2.14162e-05
2.0413e-05
5.85017e-05
6.7052e-05
6.05831e-05
7.12071e-05
6.73935e-05
7.56631e-05
7.33113e-05
8.25876e-05
7.16349e-05
8.14958e-05
8.13149e-05
8.6888e-05
8.16748e-05
8.70044e-05
8.40686e-05
8.55769e-05
8.25397e-05
8.20918e-05
7.40954e-05
7.97324e-05
7.73851e-05
7.46298e-05
7.07712e-05
6.95671e-05
6.85244e-05
6.41724e-05
6.82098e-05
5.9943e-05
6.10433e-05
5.39599e-05
5.58399e-05
4.95935e-05
-2.44325e-05
2.45039e-05
2.72837e-05
2.46847e-05
-3.33894e-05
-2.73874e-05
-3.64451e-05
-3.45637e-05
5.24307e-05
2.386e-05
4.80999e-05
9.31864e-06
-3.83078e-05
-4.33078e-05
-4.46052e-05
-4.53832e-05
-4.31089e-05
-4.26676e-05
-4.32567e-05
-3.64261e-05
-3.06537e-05
-2.53952e-05
4.83199e-05
1.23577e-05
-3.24789e-05
-3.62837e-05
-5.97725e-06
-9.31773e-06
-4.42999e-05
-2.79456e-05
1.04063e-05
-4.32277e-05
-3.41018e-05
-3.9046e-05
4.98159e-05
-3.03119e-05
-2.16039e-05
-3.24678e-05
-3.807e-05
-3.49604e-05
7.46787e-06
2.75932e-06
-3.80212e-05
-2.71689e-05
-3.50737e-05
-4.15614e-05
-3.46409e-05
2.13158e-05
-3.79605e-05
-3.83689e-05
5.01994e-05
-3.43023e-05
-3.21055e-05
1.13146e-05
-2.47831e-05
1.99216e-05
1.89717e-05
4.31719e-05
4.39572e-05
4.66897e-05
3.89999e-05
4.06893e-05
3.38896e-05
3.66338e-05
3.09125e-05
3.18831e-05
2.59943e-05
2.99901e-05
2.50785e-05
2.66085e-05
1.95123e-05
2.41952e-05
1.65997e-05
2.06726e-05
1.38678e-05
1.57983e-05
4.92306e-06
9.95228e-06
-2.46164e-06
3.46143e-07
-7.86574e-06
-5.36125e-06
-1.54192e-05
-1.31439e-05
4.87459e-05
5.46894e-05
5.57433e-05
5.65568e-05
6.05086e-05
5.62334e-05
6.95357e-05
5.94113e-05
6.61397e-05
6.04842e-05
6.57798e-05
6.15291e-05
6.40802e-05
6.32245e-05
6.43082e-05
6.20424e-05
6.92538e-05
6.30219e-05
6.38171e-05
6.30381e-05
6.63945e-05
6.52512e-05
6.14754e-05
6.10561e-05
5.7143e-05
5.7275e-05
5.58495e-05
5.70854e-05
5.38522e-05
5.53494e-05
-3.15454e-05
-3.37238e-05
-2.59017e-05
-2.38922e-05
-2.84639e-05
2.12878e-05
-3.41553e-05
-3.52462e-05
1.10874e-05
-3.66229e-05
-3.97934e-05
4.76482e-05
-3.45148e-05
2.34516e-05
2.22776e-05
2.15894e-05
4.99664e-05
-3.73571e-05
4.36199e-05
-3.44405e-05
2.71516e-05
-3.13508e-05
-2.22012e-05
3.11765e-05
2.83154e-05
1.65389e-05
1.92647e-05
-1.91242e-05
-1.07443e-05
-2.39625e-05
2.06305e-05
2.2392e-05
-2.10777e-05
-2.96386e-05
-2.6866e-05
-2.02964e-05
-2.36836e-05
2.54539e-05
4.26852e-05
3.42109e-05
4.52549e-05
2.71454e-05
1.56735e-05
5.84025e-06
-7.38209e-06
1.9547e-05
2.11149e-05
3.65341e-05
-2.03397e-05
-1.28835e-05
-2.01366e-05
-3.11284e-05
4.61247e-05
3.91417e-05
4.40767e-05
3.54046e-05
3.64367e-05
3.14067e-05
3.31503e-05
2.74253e-05
2.90867e-05
2.6498e-05
2.59981e-05
2.34927e-05
2.5005e-05
1.97881e-05
2.24584e-05
1.17009e-05
1.73396e-05
1.12431e-06
9.25784e-06
-5.39583e-06
-9.34359e-07
-1.46943e-05
-7.16046e-06
2.96339e-05
2.93024e-05
4.83743e-05
5.0482e-05
5.66892e-05
5.68011e-05
5.45571e-05
5.50214e-05
5.23577e-05
5.26296e-05
5.32453e-05
5.06278e-05
5.42079e-05
5.41808e-05
5.77765e-05
5.57556e-05
5.54632e-05
5.33153e-05
5.38142e-05
5.14531e-05
5.2653e-05
5.00653e-05
5.54286e-05
4.97041e-05
-2.93335e-05
-2.4512e-05
-2.52386e-05
3.58467e-05
3.7328e-05
-2.76977e-05
-2.36467e-05
4.78728e-05
5.06479e-05
4.37285e-05
4.71008e-05
-1.65776e-05
2.82615e-05
-2.80163e-05
-2.6444e-05
3.05997e-05
2.69571e-05
7.61719e-06
5.19335e-05
2.19937e-05
-2.48423e-05
-2.20419e-05
-1.67076e-05
-1.5767e-05
2.54374e-05
5.0225e-05
-2.47943e-05
2.86883e-05
-1.84572e-05
5.15932e-05
3.00134e-05
2.60089e-05
-1.56478e-05
8.73352e-06
3.94316e-05
2.26759e-05
-1.10139e-05
-2.56709e-05
-7.89224e-06
4.20708e-05
4.49461e-05
-1.81784e-05
2.87797e-05
2.76682e-05
3.92735e-05
4.13718e-05
3.37868e-05
3.61073e-05
3.09645e-05
3.34768e-05
2.90817e-05
3.15936e-05
2.8253e-05
3.03985e-05
2.32257e-05
2.76111e-05
1.75878e-05
2.03091e-05
1.03364e-05
1.31734e-05
-3.19971e-07
4.58293e-06
-9.57931e-06
-1.72162e-05
-6.18718e-06
4.83833e-05
-2.66366e-05
2.48976e-05
2.60476e-05
2.42826e-05
4.97808e-05
4.9681e-05
5.05875e-05
5.0864e-05
4.40739e-05
4.96676e-05
5.16579e-05
4.8305e-05
4.84955e-05
5.15239e-05
4.75328e-05
5.04325e-05
4.79926e-05
4.89736e-05
4.94209e-05
4.74768e-05
4.81623e-05
3.1102e-05
-1.2252e-05
4.37501e-05
-1.95455e-05
-4.12629e-06
-1.35575e-05
-1.20658e-05
-1.20385e-05
1.45924e-05
-5.68533e-06
-1.2553e-06
-1.40737e-06
4.38747e-05
4.64147e-05
3.29282e-05
-1.36491e-05
4.84539e-05
3.59404e-05
3.02236e-05
3.29555e-05
-1.56173e-05
-1.32729e-05
-3.97406e-06
3.68565e-05
-9.22862e-06
-1.26084e-05
3.57179e-05
3.25007e-05
-9.22682e-06
3.4629e-05
3.05966e-05
1.86955e-05
9.33136e-06
4.26086e-05
3.01022e-05
3.17707e-05
3.30058e-05
3.57689e-05
4.47209e-05
4.08688e-05
2.62357e-05
2.35532e-05
3.88884e-05
4.2024e-05
3.62613e-05
3.87758e-05
3.30463e-05
3.57016e-05
3.07825e-05
3.32998e-05
2.76595e-05
2.95476e-05
2.15464e-05
2.48751e-05
1.59367e-05
1.92731e-05
4.05832e-06
9.30908e-06
-6.15172e-06
4.71561e-05
4.10044e-05
4.83839e-05
4.84629e-05
5.37177e-05
4.85261e-05
4.95785e-05
4.71576e-05
4.68152e-05
4.47081e-05
4.38763e-05
4.39642e-05
4.85296e-05
-1.41842e-05
1.38487e-05
3.85162e-05
2.53485e-06
4.30017e-05
4.32809e-05
3.62332e-05
2.73272e-05
3.1751e-05
1.93323e-06
4.76981e-05
3.87044e-05
3.93796e-05
4.28372e-05
-6.58669e-06
-8.92365e-06
7.94359e-07
-6.35242e-06
-4.37541e-06
7.35167e-06
6.30249e-06
5.66211e-06
1.05016e-05
1.95173e-05
1.2483e-05
2.23133e-05
2.26469e-05
3.97081e-05
2.28552e-06
2.79763e-05
3.77287e-05
4.02813e-05
3.24609e-05
3.81113e-05
3.38776e-05
3.59402e-05
2.53187e-05
2.97434e-05
2.05492e-05
2.6306e-05
1.0582e-05
6.32482e-06
1.74782e-05
4.73703e-05
1.41175e-05
4.06316e-05
4.70619e-05
4.63137e-05
4.57609e-05
4.66236e-05
4.63207e-05
4.3311e-05
4.74066e-05
-4.0648e-06
2.08806e-06
-4.6102e-07
4.20781e-05
3.79415e-05
2.69733e-05
4.69088e-05
4.66526e-05
4.35049e-05
4.22068e-05
3.58714e-05
3.90937e-05
3.50387e-05
4.57799e-05
4.04655e-05
4.36725e-05
4.15336e-05
2.57923e-05
1.2681e-05
3.41814e-05
1.18926e-05
3.9516e-05
1.72651e-05
1.83619e-05
4.02757e-05
4.16845e-05
3.72766e-05
3.8626e-05
2.32141e-05
3.97304e-05
4.07789e-05
3.33374e-05
3.65938e-05
2.4369e-05
3.10562e-05
4.29532e-05
4.49677e-05
4.5409e-05
4.40123e-05
6.92166e-06
2.81579e-05
2.28746e-05
4.51877e-05
4.56195e-05
2.59821e-05
1.99784e-05
2.5206e-05
1.11453e-05
2.46403e-05
2.07259e-05
3.40054e-05
4.22516e-05
3.30427e-05
3.81472e-05
2.7274e-05
4.36917e-05
1.9375e-05
1.70709e-05
4.1807e-05
4.33996e-05
2.722e-05
2.93113e-05
2.86682e-05
4.46692e-05
4.75044e-05
4.3188e-05
2.78653e-05
3.95624e-05
3.34463e-05
3.91965e-05
4.06434e-05
3.32825e-05
2.97341e-05
3.54155e-05
0.000462222
0.000434338
0.000477787
0.000180355
6.48458e-05
0.000156565
-4.05108e-05
0.000402358
0.000222618
0.00021981
8.92423e-05
0.000321464
0.000561117
4.68707e-05
4.69373e-05
5.04664e-05
4.87161e-05
5.3479e-05
5.51966e-05
5.5084e-05
5.88961e-05
5.61573e-05
5.95994e-05
5.53175e-05
5.9262e-05
5.17262e-05
5.74962e-05
4.85182e-05
5.19451e-05
4.5983e-05
5.00632e-05
4.48363e-05
4.71098e-05
4.65998e-05
5.03154e-05
4.92921e-05
5.33013e-05
4.88504e-05
4.65282e-05
4.56676e-05
4.31758e-05
4.06053e-05
3.72691e-05
4.07786e-05
3.28598e-05
3.86487e-05
3.6084e-05
4.23982e-05
3.63413e-05
4.62258e-05
4.21727e-05
5.06474e-05
4.44449e-05
6.02683e-05
4.95148e-05
6.43241e-05
5.48873e-05
5.70248e-05
5.27526e-05
4.55022e-05
4.73585e-05
2.96853e-05
4.47376e-05
7.69986e-06
1.93506e-05
-9.58186e-06
3.52942e-07
-1.30034e-05
-1.58555e-05
7.75114e-06
-6.67885e-06
3.26377e-05
-2.38372e-05
-2.39039e-05
-2.74018e-05
-2.87969e-05
-2.54933e-05
-7.41038e-07
2.44142e-05
-2.49259e-05
5.17897e-05
4.9569e-05
4.08842e-05
2.78881e-05
1.77241e-05
7.6045e-06
-6.77983e-06
-1.81911e-05
-2.48888e-05
-2.63075e-05
1.73334e-05
4.94651e-05
5.02986e-05
-2.72618e-05
-2.59969e-05
-2.82457e-05
-2.80437e-05
-2.58525e-05
-8.37187e-06
1.00047e-05
2.25439e-05
3.11826e-05
7.69853e-06
4.94703e-05
5.09705e-05
4.75141e-05
4.8912e-05
4.44916e-05
3.30796e-05
2.29041e-05
1.41318e-05
6.98715e-08
-1.15574e-05
-2.26194e-05
-2.63315e-05
-2.76534e-05
1.22881e-05
-3.02066e-05
-2.79306e-05
-4.38197e-06
4.69333e-05
3.66016e-05
2.42217e-05
1.64515e-05
4.82044e-06
-8.9445e-06
-2.13904e-05
-2.72014e-05
-3.35396e-06
-1.37137e-05
-2.53794e-05
4.82426e-06
-1.93085e-05
-3.142e-05
-3.17644e-05
-3.39759e-05
2.19529e-05
2.04625e-05
2.86998e-05
4.4158e-05
4.60626e-05
5.49126e-05
5.84226e-05
5.56662e-05
5.84531e-05
5.91317e-05
5.79336e-05
6.0423e-05
5.53704e-05
5.74411e-05
5.20865e-05
5.49824e-05
4.80915e-05
5.21079e-05
4.52448e-05
4.54552e-05
4.67619e-05
4.68826e-05
4.73593e-05
5.36566e-05
5.28704e-05
4.48289e-05
4.69887e-05
3.94543e-05
4.47455e-05
3.72279e-05
3.20096e-05
3.36394e-05
3.2315e-05
2.67028e-05
2.76039e-05
2.50897e-05
2.61276e-05
2.7739e-05
2.46101e-05
3.233e-05
3.1032e-05
4.14708e-05
3.03542e-05
4.63133e-05
4.11601e-05
5.00597e-05
4.8339e-05
4.49305e-05
5.09522e-05
3.35957e-05
3.98444e-05
1.1433e-05
3.53671e-05
-6.45193e-06
1.46328e-05
-1.98697e-05
-8.00531e-06
-1.20736e-05
-1.41949e-05
-7.04284e-06
-2.9657e-05
-2.79494e-05
-3.58547e-05
-3.25747e-05
-3.63073e-05
-1.92971e-05
-3.38432e-05
-3.61381e-05
-3.43665e-05
4.74084e-05
-2.76726e-05
-3.12222e-05
-2.97894e-05
2.42149e-05
-4.08509e-06
-1.08331e-05
3.50597e-05
2.80543e-05
2.52849e-05
4.46985e-05
3.68878e-05
3.26989e-05
3.19273e-05
3.37679e-05
1.30028e-05
-3.1165e-05
-3.12215e-05
-3.16879e-05
-5.31656e-06
-1.88109e-05
-2.47067e-05
-2.63902e-05
-1.11643e-05
1.50745e-05
1.63281e-05
-1.30219e-06
8.65116e-06
3.96006e-07
-2.70643e-05
-2.77818e-05
-2.85861e-05
5.37065e-05
5.46178e-05
5.09233e-05
4.78379e-05
-2.64751e-05
-2.06198e-05
2.06369e-05
2.35956e-05
1.95226e-05
-2.12177e-05
-1.1613e-05
-5.34567e-06
-1.11241e-05
5.57398e-05
5.73249e-05
5.55093e-05
5.62976e-05
5.60764e-05
5.08378e-05
4.90604e-05
4.48743e-05
4.78627e-05
4.91846e-05
2.99997e-05
5.31975e-05
3.58105e-05
2.50722e-05
3.22238e-05
2.25537e-05
2.31071e-05
1.95922e-05
2.06385e-05
2.25492e-05
1.84672e-05
2.10568e-05
1.47715e-05
2.23205e-05
2.37262e-05
2.93609e-05
2.61988e-05
3.7552e-05
3.02027e-05
3.23156e-05
3.88761e-05
3.20346e-05
3.33382e-05
3.30976e-05
2.5855e-05
4.51912e-07
1.44837e-05
-1.18527e-05
-1.13816e-05
-1.70976e-05
-7.29569e-06
-1.93879e-05
-2.18254e-05
-3.46115e-05
4.87022e-05
3.76338e-05
-1.71536e-06
-2.79888e-06
1.83516e-05
-2.71432e-05
-2.34727e-05
-2.78566e-05
4.97823e-05
5.07915e-05
2.79996e-05
2.58878e-05
-2.94683e-05
3.15607e-05
4.63013e-05
-1.31158e-05
-3.60731e-05
-3.52376e-05
4.16149e-05
-2.84983e-05
-2.981e-05
2.50394e-05
2.61942e-05
2.41634e-05
-3.5037e-05
-3.56223e-05
-3.51231e-05
5.72412e-05
-2.11209e-07
3.10735e-05
-2.96238e-05
-3.16887e-05
-2.78021e-05
5.10618e-05
5.09933e-05
1.61644e-05
1.45564e-05
-2.36505e-05
-2.09275e-05
3.23148e-05
4.51948e-05
4.95638e-05
4.55428e-05
3.966e-05
4.27499e-05
-3.09125e-05
-2.84829e-05
3.41478e-05
2.42634e-05
1.61617e-05
1.69254e-05
1.48605e-05
1.19458e-05
1.68764e-05
1.61086e-05
1.36748e-05
1.45776e-05
1.79304e-05
1.74483e-05
2.52345e-05
2.50136e-05
2.65166e-05
2.75562e-05
2.67161e-05
2.53948e-05
2.18705e-05
2.55028e-05
5.69551e-06
4.85458e-06
-9.87878e-06
-1.62309e-05
4.18692e-06
-3.83738e-06
4.70186e-05
5.14703e-05
3.59383e-05
5.18396e-05
4.87668e-05
-2.20686e-05
7.98351e-06
3.5034e-05
4.04998e-05
5.19217e-05
4.95869e-05
4.82663e-05
-2.71276e-05
-2.46273e-05
3.58308e-05
-2.04827e-05
-2.00798e-05
3.56927e-05
-1.55562e-05
1.17447e-05
3.56763e-05
2.85929e-05
3.21209e-05
-2.47742e-05
-2.51888e-05
6.32361e-06
1.97323e-05
1.80352e-05
-3.03343e-05
3.13593e-05
2.78635e-05
2.4766e-05
-1.2506e-05
4.02651e-05
3.41656e-05
-3.01494e-05
-2.60231e-05
2.95801e-05
2.63712e-05
-7.05541e-06
-1.54635e-05
4.50594e-05
4.43781e-05
1.92949e-05
3.75679e-05
2.23902e-05
-1.97057e-05
-2.92168e-05
1.24483e-05
1.74429e-05
1.17084e-05
1.26609e-05
1.31841e-05
1.33396e-05
1.36873e-05
1.5157e-05
1.76423e-05
1.36326e-05
1.98865e-05
1.72807e-05
1.59917e-05
1.83489e-05
1.59446e-05
1.37848e-05
1.12063e-06
1.36204e-06
-2.86329e-06
3.82561e-05
3.86194e-05
-3.6837e-06
-5.13642e-06
5.82821e-06
1.53977e-05
3.78804e-06
2.60967e-05
2.81586e-05
2.7536e-05
-1.23748e-05
3.82577e-05
3.68123e-05
-2.87249e-05
-1.35348e-05
-6.72811e-06
-2.08012e-05
3.61467e-05
4.10101e-05
3.09231e-05
2.42225e-05
2.54655e-05
-1.39097e-05
-2.6388e-05
3.51179e-05
3.85779e-05
3.48753e-05
3.55799e-05
2.89937e-05
2.84719e-05
2.49468e-05
2.87641e-05
2.84801e-05
2.82938e-05
1.56626e-05
1.53462e-05
1.51705e-05
1.30669e-05
1.48157e-05
1.4741e-05
1.62275e-05
1.54589e-05
1.51189e-05
2.02982e-05
1.80005e-05
1.47238e-05
1.63999e-05
-2.29276e-06
-1.76237e-05
-1.28582e-05
-8.99881e-06
-2.42762e-06
-2.90862e-05
3.01166e-05
2.43663e-05
2.80618e-05
-1.41174e-05
-4.01366e-06
2.74651e-05
3.11367e-05
2.68346e-05
9.78759e-06
6.34215e-06
-9.91574e-06
2.85017e-05
2.81715e-05
2.55478e-05
-2.2975e-05
3.10797e-05
3.40297e-05
1.55005e-05
9.35121e-06
2.43407e-05
1.99387e-05
2.96439e-05
2.90364e-05
2.35005e-05
-2.00034e-05
-2.68834e-06
1.1745e-05
-6.87685e-06
2.02265e-05
2.01798e-05
2.04763e-05
2.1602e-05
2.05307e-05
2.09382e-05
1.76438e-05
7.20731e-06
2.62273e-05
2.24875e-05
3.33498e-05
2.9052e-05
2.54975e-05
2.53393e-05
1.89275e-05
1.08167e-05
2.00953e-05
2.89565e-05
2.36132e-05
2.69008e-05
2.13094e-05
2.63462e-05
2.29571e-05
2.62057e-05
3.03843e-05
2.74148e-05
2.65683e-05
2.39239e-05
2.69203e-05
0.000358379
0.000366236
0.000474497
0.000279779
0.000319596
0.000368568
0.000464919
0.000472758
0.000579387
0.00073553
0.000673368
0.000268231
0.000615833
0.000645073
0.00044773
0.000370794
0.000432422
0.000641338
0.000755525
0.000550485
0.000777825
0.000735207
0.00073436
0.00169058
0.00146555
0.00144173
0.00216883
0.000262194