/*--------------------------------*- C++ -*----------------------------------*\
| =========                 |                                                 |
| \\      /  F ield         | OpenFOAM: The Open Source CFD Toolbox           |
|  \\    /   O peration     | Version:  v2012                                 |
|   \\  /    A nd           | Website:  www.openfoam.com                      |
|    \\/     M anipulation  |                                                 |
\*---------------------------------------------------------------------------*/
FoamFile
{
    version     2.0;
    format      ascii;
    class       volVectorField;
    location    "1.5";
    object      U;
}
// * * * * * * * * * * * * * * * * * * * * * * * * * * * * * * * * * * * * * //

dimensions      [0 1 -1 0 0 0 0];


internalField   nonuniform List<vector> 
108993
(
(0.0129872 0.000145503 0.0149142)
(0.00508149 -0.000556756 -0.0125223)
(-0.000965104 0.00587463 0.0569895)
(0.0440336 -0.0617202 -0.0693981)
(-0.000420878 -0.0180921 -0.0253321)
(0.000289843 -0.000170532 -0.000897002)
(0.00928336 -0.000912091 -0.012288)
(0.000132685 -0.00468666 -5.3659e-05)
(-0.220747 0.345461 0.00134358)
(0.016866 0.00100754 0.00228021)
(0.00247544 0.0044394 0.0174381)
(0.00125599 0.00228884 0.0181152)
(0.0252352 -0.055137 -0.0482838)
(0.00430992 0.0028506 0.000557529)
(0.000782712 0.00107305 0.00828149)
(0.0549121 0.000819055 0.000499741)
(0.024428 0.00127312 0.000254249)
(0.00283697 0.00109747 0.00454996)
(0.0200668 -0.0657588 -0.0802892)
(0.00635443 -0.00441637 -0.0130039)
(0.000127481 -0.0008089 -0.015139)
(-0.00896731 0.0689408 -0.215022)
(0.00342134 -0.000109165 -0.00591074)
(-0.000541192 0.00128925 0.00338057)
(0.0271059 -0.0628459 -0.052051)
(0.00247667 -0.0012321 -0.00273965)
(-0.11558 -0.0996106 -0.136762)
(0.00399046 -0.00306009 -0.0139308)
(0.00533734 -0.00340824 -0.0100002)
(-0.00124025 0.0035709 -0.00747226)
(-0.232815 0.403709 -0.456703)
(0.00258947 0.00299437 0.0052702)
(-0.147665 0.0155358 0.0449675)
(0.0234009 0.00104051 0.0212658)
(0.0624731 -0.0458471 -0.196707)
(-0.00291843 -0.000164703 -0.0174458)
(-0.0949364 -0.210438 -0.161429)
(-3.90058e-05 0.00942437 -0.0143354)
(-0.000799466 0.00155299 -0.00765072)
(-0.000823315 0.00112466 -0.00814022)
(0.00354709 -0.00133669 -0.0103242)
(-0.0213338 0.0032343 0.00608356)
(-6.44983e-06 0.00172236 0.00226537)
(0.0872992 -0.0958413 0.00109004)
(0.035962 -0.0009161 -0.00428607)
(-0.000257884 0.000269842 -0.00471837)
(-0.121449 -0.124635 -0.0389765)
(0.00883346 9.68779e-06 -0.00819107)
(0.00425664 -0.000721338 -0.00756558)
(0.00873366 -0.000705914 -0.0174341)
(-0.095743 0.0250987 -0.114709)
(0.0202101 -0.00189811 -0.00749078)
(0.00461155 -0.00090507 -0.012177)
(-0.059695 -0.0288029 -0.0365933)
(0.00646211 0.000451863 0.00437048)
(0.00145331 0.00364201 0.00849492)
(-0.106477 0.137329 -0.104296)
(-0.0166835 -0.00377571 -0.0191979)
(-0.0167625 0.0274599 -0.0496745)
(-0.0207553 -0.0102758 -0.0253055)
(-0.0128807 0.007108 -0.0243269)
(-0.0328964 -0.0226312 -0.0525368)
(-0.00733472 0.00352561 -0.0106946)
(0.00402796 -0.000219404 4.78583e-05)
(0.00102076 -0.118282 -0.0372949)
(0.00361667 -0.00179286 -0.0050469)
(0.0107431 -0.0738189 0.000262638)
(-0.00442914 -0.0157451 -0.049462)
(0.00810204 0.0028934 0.00537918)
(0.0357832 -0.000267376 -0.000382125)
(-0.00043104 0.00204882 0.00241133)
(0.00886973 -0.0260022 -0.0589963)
(-0.00028784 0.00455357 -0.0317219)
(-0.0014468 -0.0213915 -0.0507605)
(0.00410129 6.96543e-05 -0.00797208)
(-0.879728 3.65664 0.0664512)
(0.00379695 -5.49533e-05 1.93674e-05)
(0.0249943 0.0013193 0.00783292)
(-0.0436826 0.166058 -0.11421)
(0.0178002 -0.074889 0.00111997)
(-0.00297162 0.0229402 0.00545615)
(0.0090177 0.00262674 0.00613902)
(-0.0123517 0.0424986 -0.068951)
(-1.299e-05 0.00350692 0.0223148)
(0.00262847 0.000375467 0.00539155)
(0.00208064 0.00158165 0.00329919)
(-0.00369209 0.00235123 0.0240286)
(0.00244026 0.00163411 0.0174567)
(-0.00481007 -0.0228975 -0.0166151)
(-0.00270291 -0.0624096 -0.00950663)
(-0.0212751 -0.0474765 -0.024329)
(-0.0619456 1.03397 -0.135379)
(-0.0186507 -0.0381037 -0.00374245)
(0.000248127 -0.0283855 -0.00839483)
(-0.0266516 -0.0347743 -0.0116909)
(0.00844607 0.00234816 0.00556456)
(-0.449674 0.161188 -0.281651)
(-0.010917 0.0224954 0.000163405)
(0.00368581 0.774588 -0.625781)
(0.166881 -0.0233313 -0.000243914)
(-0.0268392 -0.0260824 -0.0228185)
(-0.0106711 0.00586889 -0.144927)
(0.000154936 0.00427452 0.00704933)
(0.00638883 0.00392037 0.0101845)
(-0.00860867 0.0165655 -0.0115441)
(-0.0219398 -0.0446226 -0.000131724)
(-0.00687516 0.00787217 -0.00751382)
(0.0411348 -0.100256 -0.288936)
(0.0270538 0.0592643 -0.0710451)
(-0.000757346 1.06458e-05 -0.00830728)
(0.0229491 -0.00170896 -0.00139347)
(-0.0218132 -0.0532882 -0.017376)
(0.0153713 -0.00157647 -2.95781e-05)
(0.0182192 0.000464928 -0.00761735)
(-0.0111185 0.0161124 0.00288605)
(0.00010621 0.00155095 -0.0120033)
(-0.00286666 -0.0136373 -0.0249505)
(-0.00756905 0.00928593 0.0297628)
(0.0474161 -0.00021333 0.00155681)
(-0.453407 1.28863 -0.538922)
(0.00634364 0.00294454 0.00214707)
(-0.0630366 0.0337564 -0.147915)
(0.00417566 0.00557249 -0.0106442)
(0.00158394 0.00495757 0.0362052)
(-9.86416e-06 0.0057087 -0.0181464)
(0.0442745 0.000393835 0.00465828)
(0.00490358 -0.00134946 -0.00985131)
(-0.00129904 0.0143196 0.0153512)
(-0.0667044 0.0458148 -0.177587)
(-0.0362334 -0.014633 -0.20111)
(0.0104384 0.00190456 0.0113923)
(-0.0682022 -0.0179993 -0.182996)
(-0.0327978 0.0422018 -0.0232451)
(0.0131443 0.00167075 -0.0146198)
(-0.0117947 0.0071578 -0.00349349)
(-0.00709058 1.88656e-05 0.0533905)
(-0.0509856 0.0614048 -0.167298)
(-0.0190371 0.0304639 -0.01329)
(-0.00202812 0.00877575 -0.00785332)
(0.00470915 0.00271754 0.00222647)
(8.55232e-05 0.002178 0.0378905)
(0.239479 -0.0352067 -0.140742)
(0.0389014 -0.00165363 -0.000847819)
(-0.0660011 0.0283764 -0.180491)
(-0.0500658 0.0234497 -0.195481)
(0.00175627 0.00900595 -0.0272794)
(-0.00737223 0.0174806 -0.0052522)
(-0.000265536 -4.35066e-05 -0.00674139)
(0.000477424 0.00352488 0.0370381)
(-0.00191564 0.000976912 -0.0142871)
(-0.00297031 0.000905019 -0.0152889)
(0.00236934 -0.00124437 -0.000733259)
(0.00218368 0.0015777 -0.0011843)
(-0.00201536 0.000673257 -0.0159199)
(-0.0277407 0.0398999 -0.0430363)
(0.0112806 -0.000284477 -0.00698043)
(0.00377438 0.00642879 0.014102)
(-0.0439769 0.110767 -0.432059)
(-0.296975 0.430971 -0.363425)
(0.0287809 -0.00222993 -0.00324172)
(-0.0016179 0.000999258 -0.0160609)
(-0.152724 0.639092 -0.506973)
(-0.888751 1.90768 -0.183214)
(-0.000830937 0.00186074 -0.00256243)
(0.00123725 0.0029647 0.00825934)
(0.0157492 -0.000278331 -0.00772116)
(-0.0109679 -0.00769422 -0.00346424)
(0.00302981 -0.000289412 -1.24487e-05)
(0.003393 -0.000870453 -6.6478e-06)
(-0.00860682 0.0161569 0.00893685)
(0.00938048 0.00643979 -0.0807042)
(0.0011372 0.00453956 0.00728584)
(0.0245641 -0.00225293 -0.00400579)
(-0.00128198 0.00161847 0.0197319)
(0.00568647 -0.0155624 -0.0105788)
(0.0052733 -0.00218125 -0.00369846)
(0.0160801 -0.00134426 -0.0262371)
(0.00244459 -0.000736878 0.000323708)
(-0.0261223 0.0223889 0.0273197)
(-0.00761914 0.0287537 -0.0327994)
(0.0202289 0.00196588 0.00556947)
(-0.0409678 0.0558477 -0.057096)
(0.0180895 0.154348 -0.405648)
(0.000935886 0.00786975 0.0298701)
(0.0062795 0.00313308 0.00558262)
(-0.00151113 0.010738 -0.00266787)
(0.0527169 0.0799059 -0.301655)
(0.00285261 0.00284833 0.00746577)
(0.00423143 0.00275177 0.00835879)
(0.00347967 0.00524909 0.0316103)
(-0.00156295 0.0114821 0.0163755)
(-0.0137387 0.14129 -0.288191)
(-0.000818833 0.0105611 0.0160537)
(0.0100232 -0.0015431 -0.0219822)
(-0.0143369 0.0239935 -0.00193531)
(0.00408204 0.0116313 0.0453344)
(0.00421035 -0.00159148 -0.0108757)
(-0.00236288 0.0165484 0.00214444)
(-0.00796928 0.0243029 -0.0159642)
(-0.00142232 0.00190916 0.0312199)
(-0.00679977 -0.00335327 -0.00641689)
(0.0133246 -0.00113962 -0.016923)
(-1.44422e-06 -0.00015141 -0.0101375)
(-0.0126233 0.0176427 -0.472461)
(0.0131046 -0.00103675 -0.00682223)
(-6.31914e-05 0.000926383 -0.0108048)
(0.00672538 0.113412 0.144711)
(-5.76062e-05 -0.00504147 -0.00983607)
(-0.0286914 0.0395785 0.0069089)
(-0.00321512 0.000127833 -0.0109788)
(0.0209244 -0.00166765 -0.00314765)
(-1.3329e-05 0.0154445 -0.00796013)
(0.0170899 -0.00183079 -0.0352669)
(-0.0024852 -0.00730794 -0.0410805)
(-2.59434e-06 0.00365229 -0.00105851)
(-0.00584226 0.0161417 -0.0110767)
(0.00274141 0.00323857 0.00882768)
(0.0026567 0.117552 0.200302)
(-0.0729452 0.176272 -0.439964)
(0.0252391 0.193029 -0.281833)
(0.0129819 -0.00394086 -0.00313059)
(-0.0011575 7.09889e-05 -0.0142673)
(0.03381 0.00649003 0.0431133)
(0.00706839 0.00164696 -0.0248559)
(0.006508 -0.000745139 0.000123176)
(0.00205041 -0.000694902 0.000297072)
(-0.0325719 0.1599 -0.468102)
(-0.019416 -0.0157448 0.0852899)
(0.0222316 -0.000137089 -0.01669)
(0.000930651 -0.00100977 -0.00427895)
(0.000128081 0.0175482 -0.00437069)
(-0.000787841 0.00475369 0.00272476)
(0.00223761 -0.00083505 1.11119e-05)
(0.000492716 -0.00138889 -0.00883282)
(-0.0815535 0.00771667 -0.0300307)
(0.000951506 -0.0804671 -0.0771563)
(-0.200353 0.274147 -0.217243)
(-0.0522349 0.0279593 -0.0741879)
(0.0218774 -0.00047391 -0.00332265)
(-0.0688177 0.180705 -0.527603)
(0.0116547 -0.191323 0.141469)
(-0.0538981 0.0665644 0.0707009)
(-5.01732e-06 0.000437721 -0.00150556)
(-0.068757 0.136509 -0.520852)
(-0.0523582 0.127077 -0.377688)
(0.0547488 8.54727e-05 0.00294736)
(-0.00182686 -0.0255611 -0.0513402)
(0.00253576 0.00525396 -0.00969465)
(-0.085395 0.23828 -0.56209)
(-0.0271497 0.0594215 -0.116561)
(-1.04664 -0.193517 -0.0164318)
(0.0107975 -0.118065 -0.102763)
(-0.12692 0.147478 0.0284374)
(-0.00861798 0.0163918 0.00407131)
(-0.0316964 0.0841184 -0.384271)
(-0.0600933 0.0988961 -0.599661)
(-0.0210306 0.0607741 -0.384918)
(0.0040512 0.00108454 0.026178)
(0.0608421 0.748968 -0.137235)
(0.000423462 -0.000272414 -0.000199982)
(-0.00542962 -0.0715029 0.112012)
(0.00400235 -1.96058e-05 -0.00763359)
(0.0374828 0.000225129 0.00508602)
(0.0441926 -0.000895265 0.00362165)
(0.173942 0.214022 -0.0964091)
(0.00144651 -0.000714017 -0.00563745)
(-0.0175682 -0.0522814 0.0382839)
(0.00482263 -0.00241054 -0.00737034)
(0.00067688 -0.000369568 -0.000396148)
(-0.0429534 0.063163 0.00442662)
(-0.00628739 -0.00615375 -0.00276417)
(-0.00082309 -0.00401511 0.0591563)
(0.00153559 -0.0105979 -0.00141807)
(-0.000779408 -1.83952e-05 -0.00768584)
(0.00010479 -0.000318172 -0.00672834)
(-0.0264969 0.0253 0.0193397)
(-0.0483531 -0.47769 0.0286165)
(0.0121976 0.00499384 -0.0278645)
(0.00163827 0.00518576 0.0264111)
(0.00690306 -0.00246226 -0.00812628)
(0.00744163 -0.0023671 -0.00864425)
(-0.000282664 0.000619353 -0.000441103)
(-0.000509451 0.00075967 -0.000856366)
(0.00172468 -0.00185944 -0.000581962)
(-0.0429546 0.187042 -0.137523)
(0.0310533 -0.000357857 0.00985708)
(0.0100462 -0.0430629 -0.0695846)
(0.0104451 -0.00329994 -0.010096)
(0.00890115 0.00591156 0.0228496)
(2.72694e-05 1.36207e-05 -0.00636031)
(0.00783426 0.00291987 0.00206145)
(-0.0148155 -0.185916 0.0499516)
(0.00971124 -0.00321359 -0.00979753)
(-0.027357 -0.14222 0.0184962)
(0.00280625 -0.005257 -0.00212224)
(-0.00303077 -0.0314892 0.106549)
(-1.67938 2.87125 -0.796759)
(-0.0143288 -0.121158 0.0932485)
(0.0332278 -9.3761e-05 -0.000122558)
(-0.00185565 -0.000771178 -0.00453082)
(-0.000227072 0.00272093 -0.0106334)
(-0.00110629 0.000160066 -0.0122251)
(-0.0086968 0.0133418 -0.0101514)
(-0.00290809 -3.87261e-05 -0.00324191)
(-0.105571 0.0903872 0.0103862)
(0.000485982 4.1687e-05 -0.00441249)
(0.00243524 -0.00081666 4.53691e-05)
(0.00193823 -4.05e-05 -0.00881117)
(0.000934556 -0.000211245 -0.00404879)
(0.00387689 -0.0179965 -0.00561703)
(-0.0102687 -0.00334819 -0.0118531)
(-0.0191675 0.0103154 -0.0367875)
(0.0287201 0.00119925 0.00331757)
(-0.00436219 0.00279203 -0.0162786)
(0.000990343 -0.000154784 -0.00465268)
(-0.00115269 0.00101373 -0.0127782)
(0.00413062 -1.97103e-05 -4.73845e-05)
(0.0280006 0.00122464 0.00302812)
(-4.46135e-05 0.000515251 -0.00771547)
(-0.0948254 0.0614563 0.0458591)
(0.00635305 -0.00126246 -0.0113974)
(0.00426843 -0.000103778 -0.000193097)
(0.000373141 -0.00071529 -0.0103429)
(0.000382062 -0.00075706 -0.00943068)
(-0.00654333 0.0163458 0.00369206)
(-0.000801589 0.00151623 -0.0232953)
(-0.000313422 0.000671474 -0.00913311)
(-0.000588503 0.0013268 -0.0119382)
(-0.439519 0.36005 -0.0851495)
(0.00304401 0.0113271 0.0453047)
(0.0088611 -0.000605428 -0.00458782)
(-5.37332e-05 0.00267111 -0.0122455)
(-0.0451189 0.00426741 -0.0537933)
(0.0589841 0.26478 0.154401)
(-3.47523e-05 -0.00165223 -0.00982385)
(-0.003203 3.34662e-05 -0.00510286)
(-0.00913771 0.000331848 -0.00746205)
(-0.022787 -0.00788902 -0.0383582)
(-0.0358777 0.0306413 0.0173105)
(-0.0281676 0.208514 -0.140176)
(-0.0800168 0.0287764 -0.0187456)
(-0.000495124 -1.24646e-05 -0.00851032)
(0.013002 -0.00237271 -0.0140603)
(-0.00879458 0.0184976 -0.00523312)
(0.00228469 0.00621625 0.0118657)
(0.00233434 0.00048368 0.00715062)
(-0.00499268 -0.0162017 0.0699952)
(-0.00817193 0.00564714 -0.0155691)
(-0.00495546 6.2404e-05 -0.00885204)
(-0.00553313 -0.01114 0.0682258)
(-0.041893 -0.0491213 0.0339255)
(0.000317405 -0.00020237 -2.57057e-06)
(-0.000388902 0.00036272 -3.50769e-06)
(-0.000205948 -0.00179779 -0.000712078)
(0.00638969 -0.00328838 0.00192778)
(-0.0153327 0.0269361 -0.0113739)
(-0.0172416 0.031764 0.00345313)
(-0.00074311 0.000101278 -0.00875547)
(0.000594204 -5.22148e-05 0.0202245)
(1.95947e-06 -0.000789929 0.000174381)
(0.0299941 0.00398845 0.0242158)
(0.0146562 -0.00246344 -0.0141509)
(0.000416599 -0.0162391 0.0720908)
(-0.00727311 -0.00599225 0.054422)
(0.00385905 -0.00120366 -0.00784765)
(0.00822235 -0.00280602 -0.0158082)
(-0.0120518 -0.014421 0.061628)
(-0.0922041 0.18069 -0.124603)
(-4.08106e-05 0.00506752 0.0100739)
(-0.00186243 0.000960943 -0.00437193)
(0.00178297 0.00246323 -0.0128895)
(0.0243126 0.00101592 0.0135311)
(-0.00147711 -0.00801625 0.0607985)
(-0.00360393 0.000721048 -0.0131301)
(0.00899987 -0.00189729 -0.0145302)
(-0.000721779 0.000871681 -0.011657)
(0.0125081 0.00517716 0.0147874)
(-0.045948 0.0343521 0.0358236)
(-0.000257707 0.000853376 -0.0114072)
(-0.00219522 0.00961659 0.0182839)
(-0.000328333 0.00096829 -0.0123352)
(-0.000303116 0.000887754 -0.0117362)
(0.00972852 -0.00331105 -0.0149656)
(0.0564026 0.000815986 -0.00250329)
(0.0034861 0.000162546 0.00773694)
(0.000770505 -0.000500068 -0.00100276)
(0.0219936 0.00222243 0.00343057)
(-0.00790389 0.0232044 -0.00231846)
(0.0044942 -0.00191248 -0.00753529)
(-0.000111742 -0.00180313 -0.00642056)
(-6.70667e-05 0.00149249 -0.0116786)
(0.000175178 -0.00064842 -0.000703796)
(0.000199871 0.00132781 -0.0116422)
(0.00963055 0.00304856 0.00140811)
(0.000313939 -0.00513337 -1.48265e-05)
(0.0108247 -0.00265582 -0.0119111)
(-0.0025909 0.000505059 -0.00867956)
(-0.0127066 0.0504774 -0.0528325)
(0.0436182 -0.000316797 0.000919112)
(-0.207785 0.290385 0.00301447)
(0.00964437 -0.00236538 -0.0127015)
(0.0244785 0.00162894 -0.0195408)
(0.00519748 -0.0012004 -0.0105799)
(-0.0299152 0.00193849 -0.00448444)
(0.0120581 -0.00325901 -0.0012998)
(2.36908e-06 -0.000739569 -0.00043733)
(0.000732283 -0.000529499 -0.00137506)
(-0.00594386 0.015306 -0.00493942)
(0.00355947 0.0117679 0.0515794)
(-0.00181231 3.80693e-05 -0.00846198)
(3.15527e-05 0.00256298 0.000868442)
(0.00469599 8.22595e-05 -0.0133237)
(-0.000466799 0.00186188 -0.00675744)
(-0.00236821 0.000639168 -0.00189408)
(0.00321662 0.00176602 0.0138026)
(-0.271818 0.163068 0.0721296)
(-0.0027784 0.000888498 -0.0130875)
(0.0359161 -0.000904671 0.000121739)
(-0.0012486 -0.00802422 -0.00179426)
(-0.00911485 4.57588e-05 -0.0105858)
(-0.00206755 0.000502144 -0.00946057)
(0.0061419 -0.00119454 -0.0119012)
(-0.00160556 6.19519e-05 -0.00956511)
(0.00158882 -9.45732e-06 0.000238762)
(-0.0120628 -0.00850862 -0.0079538)
(-0.000864759 -1.97007e-06 -0.00964256)
(-0.00129957 0.00394393 -0.0113378)
(-0.0013133 0.00306209 -0.0152724)
(-0.000808817 0.000964383 -0.00997524)
(-0.00675459 -0.00394894 -0.00022103)
(-0.00312683 0.000294934 -0.00962362)
(-0.000552963 0.00120367 -0.00680199)
(-0.00314295 0.000658758 -0.00985697)
(-0.108045 0.0959013 -0.130577)
(-0.0106192 0.00588901 0.00592873)
(0.0174931 0.00180614 0.00169189)
(0.00467773 0.000460311 0.0098078)
(0.00785504 -0.0038663 -0.00350877)
(0.00254198 -0.00251041 -1.39272e-06)
(-0.0569542 -0.356473 -0.0170942)
(0.00282732 0.00369188 0.00860779)
(-0.0243235 0.0233695 0.103374)
(-0.0199729 0.0339988 0.0645825)
(0.000595317 -0.0016115 -0.00253112)
(0.0311082 -0.000622801 -0.00185685)
(0.00848455 -0.00065851 -0.0136965)
(0.0073805 -0.000571766 -0.0119668)
(0.0238388 -0.00211675 -0.00387478)
(-0.0201908 0.0131291 0.0958561)
(0.000142974 -0.00136398 -0.00234811)
(0.00812191 0.00045822 0.00923828)
(-0.0125037 -0.0242334 -0.00871318)
(-0.021334 0.00480358 0.0870498)
(0.0198405 0.00419655 0.0179268)
(0.00229917 -0.00268213 0.000109867)
(0.000621161 0.0028134 0.00777833)
(0.00308876 0.00379572 0.00845745)
(0.000351564 -0.00217057 -0.00212158)
(-0.00370596 0.00898606 0.0234307)
(-0.00705612 0.00545247 -0.0261602)
(0.00416826 0.00562906 -0.000462954)
(0.00495723 0.00157486 0.0537116)
(0.00570782 0.00675899 -0.00269382)
(-0.000761255 0.00074514 -0.0141458)
(0.0375422 -0.00144109 -0.000869152)
(-0.00196795 -0.00372354 0.05556)
(0.00251004 2.18106e-05 -0.00567416)
(0.00690631 0.00805705 -0.00370849)
(-0.00357176 -0.00509481 0.0561779)
(0.00229072 0.000531685 0.0549058)
(0.0360025 0.00125409 0.000142288)
(-0.00316983 -0.00604086 -0.0245851)
(0.0973541 0.199856 -0.243691)
(0.00310017 0.00095308 -0.00648488)
(0.00396677 -1.18005e-05 7.31951e-06)
(0.0383256 -0.000183193 -0.000275413)
(0.194018 -0.338844 -0.281641)
(0.0193061 -0.00095935 -0.00242115)
(-0.00053742 -0.00199996 -1.26405e-05)
(0.0464995 -0.000706947 -0.00106977)
(-0.0133367 0.0180245 -0.012559)
(0.557904 1.03568 -0.120838)
(-0.200086 0.354146 0.349687)
(-0.00545881 -0.0292297 0.0630352)
(0.0124181 -0.000790519 0.0779515)
(-0.0013126 -0.000902973 0.0501622)
(0.000354508 0.000627244 0.0548312)
(-0.00266079 0.00066105 0.053765)
(0.0243883 -0.0017889 -0.00219294)
(0.0153572 0.00286072 0.0276313)
(0.00330512 0.00328554 0.00807781)
(-8.94719e-05 0.00975868 0.0134096)
(0.0440116 8.33274e-05 -7.46198e-05)
(0.0020892 -1.96712e-05 0.0537172)
(0.0431522 -0.000770587 -0.00414444)
(-0.000906948 0.00491914 -0.00875592)
(0.020454 0.0102177 0.0737786)
(-0.0263553 -0.00773317 0.0463637)
(-0.0062626 -0.00152506 0.0737937)
(0.00516334 -0.00144285 -0.0106532)
(0.00323665 0.0657513 -0.0408724)
(0.585306 0.330508 0.188666)
(0.0199073 -0.259286 -0.182746)
(-0.00401987 -0.00259082 0.0608879)
(0.0377176 0.00097115 -0.00160579)
(-0.001137 0.000974499 -0.0132385)
(-0.0065151 -0.00907651 0.0573318)
(0.126524 -0.234248 -0.380209)
(-0.00181366 0.0261631 -0.00408734)
(-0.00647958 -0.0144254 0.06527)
(0.0529189 0.00269377 0.00503694)
(0.00911921 -0.00130556 -0.0128604)
(0.19805 3.89266 0.784976)
(0.0193505 0.00215098 0.00797484)
(-0.00440801 -0.00950884 0.078748)
(-0.0198789 0.0141822 -0.416206)
(0.000434262 -0.00087514 -0.00218223)
(-0.00885044 -0.00926453 0.0846788)
(0.00441484 -0.000300971 -0.00956009)
(0.00229703 -0.000492477 -0.00825729)
(0.0394851 -0.001443 -0.0140619)
(0.0427808 0.00133002 -0.00214765)
(0.00816593 -0.000507635 -0.0123149)
(0.00504359 -0.000848127 -0.00661562)
(0.00598455 -0.00314883 -0.00789932)
(0.044487 -0.00424823 -0.0105256)
(1.52848e-05 -0.000378039 -0.00179363)
(-0.0153307 0.00932798 0.0502937)
(0.0431451 -0.00383332 -0.00877349)
(0.004416 -0.000635304 -0.00546206)
(-0.000349562 -0.00223075 -0.0087697)
(-0.00449848 0.000211862 -0.0165178)
(0.0416324 -0.000490391 -0.00817854)
(0.0086614 0.00281447 0.000274117)
(3.94008e-06 0.0155858 -0.0108148)
(-0.0204949 0.0115691 0.0101799)
(0.00954984 -0.000572679 -0.00111191)
(0.00140945 0.00377974 0.00958141)
(0.0311211 -0.00038396 0.00947689)
(0.000193422 -0.00294116 -1.29821e-05)
(-0.00504264 2.607e-05 -0.0061108)
(0.000117357 -1.85063e-05 -0.00394738)
(-0.00478262 -0.000104944 -0.00708403)
(-0.00703957 0.00801145 -0.0113059)
(-0.00158719 0.00533428 0.0195679)
(-0.0313029 0.0479922 0.0246638)
(-0.00874455 0.0104017 -0.0163997)
(0.0414405 -0.00123951 -0.00746593)
(-0.00962251 0.018835 0.0140314)
(-0.0233455 -0.0219084 -0.0331466)
(0.000420469 0.00372692 -0.0101104)
(-3.15794e-05 -0.00252388 -0.00868123)
(6.05065e-06 0.00244308 -0.00131624)
(-0.00518553 0.00615941 -0.00842332)
(0.0021462 0.00336108 0.00804873)
(-0.00590233 5.10992e-05 -0.00640768)
(-0.241524 0.0402736 0.411544)
(0.00876259 -0.000576251 -0.0131142)
(-0.00574238 0.000653743 -0.0135989)
(0.005108 -0.00211166 -0.0099835)
(0.0222309 0.00397026 0.0181128)
(0.226257 1.6339 -0.221294)
(-0.00169759 -0.000452655 0.044304)
(0.0079561 -0.000723981 -0.010018)
(0.0309401 -0.000751591 0.00076473)
(0.000490766 0.000141057 -0.0146306)
(0.00348843 0.00549685 0.011966)
(0.191456 -0.0400537 -0.484602)
(0.00557398 -0.0010799 -0.0117835)
(0.00338926 -0.00113751 -0.010809)
(0.00121395 0.00041245 0.0383957)
(0.00217191 -0.000350209 -0.0129254)
(-0.00446671 0.000562072 -0.00772879)
(0.0321815 0.000250194 -0.00030449)
(-0.000566319 0.00252942 -0.014458)
(0.00890331 -0.000346695 -0.0100177)
(0.000719345 0.00647806 0.0108619)
(0.0309051 -0.000240396 -0.00212658)
(-0.000397917 0.000648547 -0.00973196)
(0.0163369 -0.00222134 -0.0165274)
(0.0225926 0.00618836 0.0185037)
(0.00227301 0.00761189 0.0136081)
(-0.00567824 0.0452645 0.0596954)
(-0.0126186 -0.0178039 -0.109556)
(0.000265104 0.00286337 0.00727629)
(0.0429292 -0.000673479 -0.0027811)
(-1.85826e-05 0.000429999 -0.00355863)
(0.031935 0.00144102 -0.00115982)
(0.00566452 0.00172153 0.00463987)
(0.00166085 -0.000871211 -1.17552e-06)
(0.00601204 -0.000776728 -0.0105943)
(-0.000394899 0.00118391 -0.00324382)
(0.00465681 0.000141468 -0.0100721)
(-0.00680885 -0.00127409 0.0759899)
(-3.94274e-05 0.000101541 -0.00697985)
(-0.0446155 0.123596 -0.0840627)
(-0.177517 0.261488 0.0328834)
(-0.000429641 0.000914212 -0.00413179)
(0.00374119 0.000261547 -0.014205)
(0.0368696 -0.000523341 -8.83321e-06)
(-0.00411683 0.00656253 0.0647051)
(0.00422396 0.00593727 0.0173812)
(-0.00203366 -2.42371e-05 -0.00693188)
(0.0345572 -0.00146604 0.00161674)
(0.00428142 0.0031222 0.000532394)
(-0.00021538 0.000765482 -0.00100403)
(-0.000981189 -0.000220751 -0.00767483)
(-0.000910814 -2.41108e-05 -0.00198942)
(0.0332303 0.000472433 0.00705803)
(0.00386793 0.00100885 0.0322108)
(0.00593717 0.000778968 -0.0429889)
(0.00903257 0.000871441 0.0360779)
(0.0357736 -0.00186752 -0.002281)
(0.00423227 0.00152572 0.0375955)
(0.00715052 -0.00068321 -0.0100128)
(-0.0111992 -0.00267916 0.0472431)
(0.0557368 0.000933238 0.0123823)
(0.000107272 4.5088e-05 -0.00259558)
(-0.00153331 -0.00207249 -0.0149048)
(-0.00613228 -0.0290603 -0.0268346)
(0.0201355 -0.00036186 -0.0101816)
(0.00407267 -0.0408465 -0.022775)
(-0.000270257 0.0104238 0.0155321)
(-0.000575914 -0.00140665 -0.00720218)
(0.00557882 -0.000825078 -0.0107504)
(-0.0182543 0.00203757 -0.0449039)
(-0.431982 0.992473 -0.0603268)
(-0.000645793 0.00267227 -0.00429956)
(-0.00148978 0.000945395 -0.000692927)
(0.04476 0.00156758 0.0110894)
(-0.000605964 0.00180271 -0.0133579)
(0.00514315 -0.0017169 -0.00937359)
(-0.00116137 0.00350623 -0.00902872)
(0.000475844 0.000989106 -0.0205806)
(0.0476 0.00373117 0.0165135)
(0.000608984 -0.000586364 -0.00154765)
(-0.000883366 0.00203123 -0.00283823)
(-0.00214331 0.00138069 -0.0114549)
(0.0427041 -0.000157876 -0.00810307)
(0.0198928 -0.00134638 -0.00313233)
(0.00631706 -0.000179456 0.00144204)
(0.0198741 -0.0018053 -0.00413227)
(-0.021403 -0.00311263 0.032809)
(0.00414309 0.00118055 -0.0140286)
(-0.090584 -0.144241 0.0321459)
(0.055939 0.00130906 0.00831523)
(0.0198604 0.000826103 0.0135865)
(0.0210253 -0.000933689 -0.00282301)
(0.0374389 0.000165775 3.41961e-05)
(0.0468756 0.00142524 0.00999777)
(0.0463169 0.00109502 0.0136113)
(0.0447746 0.000488007 -0.00401341)
(-4.16819e-05 -0.00645415 -0.00543137)
(0.000322925 0.00108517 -0.00177276)
(0.0350973 -6.69347e-05 -0.000140333)
(0.00455937 4.0131e-05 -0.0100562)
(0.0660006 -0.00483693 -0.00732677)
(-0.000539672 0.00190599 -0.00107673)
(0.0331355 -0.00136748 -0.000966283)
(1.0333e-05 0.00225566 -0.00158681)
(1.89852e-05 0.00110086 -0.00140521)
(0.00318108 -0.00141992 -0.00173604)
(0.0320637 0.00191063 0.008616)
(0.0142811 -0.217109 0.197333)
(1.29471e-05 -0.00203123 -0.00119359)
(0.00856997 -3.19282e-05 -0.0138027)
(0.00268442 -0.000554369 -2e-05)
(0.0380254 0.000991861 0.00538067)
(-0.00184779 -0.00976848 -0.00649656)
(-0.000732306 -0.00637773 -0.000427456)
(0.0369033 0.0004963 0.00159846)
(0.00803393 -0.000798504 -0.00666995)
(0.0167992 -0.000694432 -0.00643741)
(-7.80066e-05 0.000649327 -0.00153835)
(-0.00036408 0.00154063 -0.00241942)
(-0.0365926 -0.039111 -0.0316799)
(0.00177546 0.000138789 -0.0210347)
(0.0369866 0.000483407 0.00137264)
(0.00423674 -0.0020541 -0.000803771)
(-0.000188288 -0.000305536 -0.00738069)
(0.00638164 -0.000965142 -0.0135397)
(0.025529 -0.00122734 -0.00373217)
(0.0368723 -0.000983888 0.000892922)
(0.0430101 0.000912112 0.00979048)
(6.79786e-05 -0.000581148 -0.00652045)
(0.0420482 -0.000355197 0.00567686)
(0.0358531 -0.00703105 -0.00149411)
(0.0333813 -0.000346885 0.00192266)
(0.036145 0.000272609 0.00199755)
(-0.00438625 0.0021545 -0.0134841)
(-0.233641 0.0710848 -0.191353)
(-0.00841935 0.0104056 0.0517962)
(0.0214579 -0.000840945 -0.000441286)
(0.0132998 0.000698362 0.000174807)
(-1.67068e-05 -0.000485274 -0.0101758)
(-0.0148288 0.00602679 -0.0103715)
(0.030635 -0.000228956 0.000721776)
(7.08681e-05 -0.00266392 -0.0104549)
(0.0294573 -0.00017696 0.00194022)
(-0.00958356 0.00782308 -0.0118366)
(0.0152624 9.17067e-05 -0.0100866)
(-0.0346036 -0.00493773 -0.321341)
(0.00510837 -0.000885346 6.90132e-05)
(0.00531601 -0.000405767 -0.00013489)
(0.0392117 -0.000426204 -0.000505022)
(-0.000115671 0.000676333 -0.0114465)
(0.0368004 -0.000879254 -0.00208655)
(0.0020003 -0.00080137 -0.00768894)
(-0.0455117 -0.0752268 -0.000562)
(0.00535957 -0.000906296 9.44897e-06)
(0.0110535 0.00015446 -0.0114025)
(-0.000651416 -0.00266874 -0.00346141)
(-0.0025205 0.00319169 -0.00439382)
(-0.00341199 0.0147179 0.00794972)
(-0.00355148 0.00297971 -0.0108107)
(-0.000182256 0.0188506 0.0255697)
(0.0176369 -0.000193395 7.22413e-05)
(0.0415743 -0.0011645 -0.000168606)
(-0.00308437 0.000249421 -0.00255465)
(0.0187851 -0.000694312 -0.00156587)
(0.00437029 -0.000321048 -0.00979597)
(0.0566895 0.00289027 0.00781775)
(0.0138741 -0.00151461 -0.00907323)
(0.0556034 0.000315775 -7.12888e-05)
(0.0096811 0.000893962 0.00654856)
(0.049371 0.00146425 0.00518527)
(0.0124481 0.000175401 -0.011249)
(0.0210795 -5.91089e-05 -0.00175878)
(-7.30708e-05 0.00101099 -0.00794246)
(-0.0015665 -0.00865421 -0.0250271)
(0.0210516 -0.000945834 -0.0032557)
(0.0556249 0.00156136 0.00562946)
(0.0546666 -0.000435624 -0.000196357)
(0.0518762 -0.00150097 0.0019992)
(0.0135429 0.000574462 0.0136951)
(-0.00338789 -0.0009406 -0.00399909)
(0.0197588 -0.00114644 -0.00424831)
(0.00334795 -0.000721117 -0.000306151)
(-0.00239257 0.00320138 0.0620616)
(0.00662917 -0.000459501 -0.00986176)
(0.0039995 0.00106809 0.0199575)
(0.0544646 -0.000969473 -0.00186376)
(-0.00188169 0.00191194 -0.00590104)
(0.000259881 -0.00171613 -0.0101813)
(0.0346573 0.0021943 0.0229809)
(0.0105736 -0.00162717 -0.00979891)
(0.0489919 0.00364462 0.0176859)
(0.0439439 0.00321131 0.0132942)
(0.0392435 0.00244415 0.0188162)
(0.0440277 -0.000653885 0.000427083)
(0.00319472 0.00565805 0.0115029)
(0.00284043 -0.000866527 0.000192384)
(0.00362576 -0.000614902 -0.000258875)
(0.0388934 0.003468 0.0265885)
(0.00296612 -0.000342275 0.000169855)
(0.0111466 -0.000569168 -0.0132726)
(0.00376695 -0.000531054 -0.000462501)
(0.0576613 -0.000854644 3.377e-05)
(0.0410685 -8.36093e-05 -0.00121753)
(0.00251048 -0.000150463 -0.00652655)
(0.0769726 0.00753959 0.00314101)
(0.00322805 -0.00114959 0.000362047)
(0.0460752 -0.000311465 0.0322924)
(0.0174543 0.00293905 0.0321467)
(0.0408375 -0.000120406 -0.0002628)
(0.0014796 -0.00206023 -0.013646)
(0.00596258 -0.000478782 -0.00909709)
(0.000476961 -0.00513715 -0.00063701)
(0.0114322 -0.0330263 -0.0320605)
(-0.0161338 0.00937194 0.0936527)
(0.0194905 0.0039346 0.0313328)
(0.0213919 -0.00407154 -0.0147749)
(-0.0263345 0.0170725 -0.0139506)
(-0.000821368 0.00579466 -0.0128656)
(0.000297581 0.00119442 -0.0115273)
(0.0134213 0.00298628 0.00496603)
(0.0213839 0.00423513 0.0296154)
(-0.00186408 0.0006085 -0.00697921)
(0.00155503 0.00212441 -0.0136125)
(0.021651 0.00158822 0.00746754)
(0.000119888 -0.00252244 0.0557806)
(0.0815454 -0.00196969 0.00162027)
(0.0238 0.00522424 0.0280468)
(0.020953 0.0032273 0.0279584)
(0.00932283 -0.000969741 -0.00961842)
(0.0100573 0.000151685 -0.0175935)
(0.00927422 -0.000128976 -0.0132222)
(-0.000798251 -0.00225011 -0.0125168)
(-0.0559492 0.0525553 0.014365)
(0.0389805 0.00104576 0.000598143)
(-0.0184578 -0.0291294 -0.0402032)
(-0.000395132 0.000130472 -0.00718019)
(-0.000807055 -0.0203576 -0.019452)
(-0.00358966 0.00763625 0.0272205)
(-0.00117097 0.000719456 -0.00796002)
(0.0420019 -0.000533263 0.00593775)
(-0.000134114 0.00119417 -0.0126027)
(0.00573477 -0.00064393 -0.00331849)
(-2.38214e-05 0.000760684 -0.0110951)
(-0.00289492 0.00476509 -0.00676133)
(0.00918555 -0.000474565 -0.0125006)
(0.0429117 -0.000375772 0.00274724)
(-0.00969995 -0.0577056 -0.0236068)
(0.0195472 0.00169217 0.0285745)
(0.04103 -0.0015078 0.0064823)
(0.233696 1.98073 0.526488)
(0.00196889 0.0078526 0.0114213)
(0.00193359 0.00298853 2.40941e-05)
(-0.012773 0.0392935 0.0233109)
(-0.0311912 0.0362131 0.0746608)
(0.0139779 -0.00038234 0.0471215)
(0.00301584 -0.00122623 -0.0112761)
(-0.013136 -0.00364892 -0.0268629)
(0.038447 -0.000964793 0.000314413)
(-0.0162797 0.0159633 0.0278654)
(0.0380513 -0.00683024 -0.0397192)
(0.000617579 -0.000447799 -0.00533758)
(0.00449495 0.00369941 0.0117029)
(-0.0155333 0.000284823 -0.0121924)
(0.000721272 -0.00048563 -0.00559096)
(-0.00999152 0.000821192 -0.0144302)
(0.0185664 0.00155812 2.28726e-05)
(0.00821931 0.00366388 0.00199602)
(0.027031 0.00157889 0.00993759)