/*--------------------------------*- C++ -*----------------------------------*\
| =========                 |                                                 |
| \\      /  F ield         | OpenFOAM: The Open Source CFD Toolbox           |
|  \\    /   O peration     | Version:  v2012                                 |
|   \\  /    A nd           | Website:  www.openfoam.com                      |
|    \\/     M anipulation  |                                                 |
\*---------------------------------------------------------------------------*/
FoamFile
{
    version     2.0;
    format      ascii;
    class       volScalarField;
    location    "0";
    object      ph_rgh;
}
// * * * * * * * * * * * * * * * * * * * * * * * * * * * * * * * * * * * * * //

dimensions      [1 -1 -2 0 0 0 0];


internalField   nonuniform List<scalar> 
108993
(
-0.00287731
-0.00108225
0.000471304
-0.00037578
-0.00140799
-0.00307382
-0.00277673
-0.00287157
0.000292318
-0.00204558
0.000425709
0.000282218
-0.000622445
0.000507705
-0.00252243
-2.467e-05
-0.00232403
-0.00228264
-0.000488261
-0.000502214
-0.00302542
0.00014472
5.87913e-06
-0.00291636
-0.000583488
-0.000993482
9.22851e-05
-0.000366014
-0.00147689
-0.00279542
0.000170772
0.000543102
8.60683e-05
-0.00210105
-9.90903e-05
-0.00232711
0.000125391
-0.000827306
-0.00056029
-0.00234692
0.000377293
0.000190774
0.000523485
-0.000300953
0.000149695
-0.00280235
0.00010439
-0.00306615
-0.00290244
0.000162382
-7.57163e-05
0.000449729
-0.000526079
-0.000232485
-0.00270538
-0.0020847
7.33656e-07
-0.0014748
-1.1507e-05
-0.00139987
-0.00123275
-0.000647014
-0.00252728
-0.000141415
-0.000651627
-0.000696102
-0.00084083
-0.000733605
3.48486e-05
-0.00205732
-0.00275822
-0.000759301
-0.00076943
-0.000860138
-0.00284977
0.000608222
-0.000168641
-0.00218764
2.32286e-05
-0.000817777
-0.00111888
-0.000875293
0.000196425
0.000193158
-0.00226231
0.00038742
0.000172192
0.000234739
-0.00178224
-0.00105288
-0.00111632
0.000221833
-0.00123945
-0.00111946
-0.00121992
0.00054778
9.74756e-05
-3.32431e-05
0.000162985
-0.000289875
-0.00112705
-8.95049e-05
-0.00157916
0.000300018
-0.000667018
-0.00114244
-0.00203888
-4.94206e-05
0.000183739
-0.00205839
9.20144e-05
-0.00102611
0.000164085
0.000257342
0.000318809
0.000122815
-0.00158396
0.000496994
0.000356109
0.000202919
-0.000579942
-9.95983e-05
0.000252288
0.000378562
-0.00113375
-2.99099e-07
0.000414562
-0.000767068
-6.6263e-05
-0.000104712
0.000446336
-0.000142551
0.00011978
0.000326793
0.000137119
6.33726e-05
-5.35092e-05
0.000158567
-0.00227188
0.000468827
0.000335212
0.00190073
0.000468718
-7.84754e-05
-6.66821e-05
-0.000610827
-0.000437197
-0.00315492
0.00034538
0.000133235
0.000125871
-0.00104476
4.01323e-05
0.000204655
0.000246922
0.00032841
-0.000430389
6.89905e-05
6.1225e-05
-3.78827e-05
0.000166721
1.66573e-05
0.00175019
-0.00290637
0.000546442
0.000480297
-0.00224413
-0.000165475
-0.000114116
0.000383302
-8.573e-05
-0.00181019
0.000454729
-2.90368e-06
-0.0008444
-5.50879e-05
0.000336488
-0.000127711
0.000426051
0.000192606
-0.00063518
0.000228044
0.000117174
0.000379109
0.000428658
-0.000848889
0.000127364
-0.000842123
-0.00110531
0.000392192
0.000459555
0.000132995
0.000412256
0.000194912
0.00033638
0.000507595
0.000391133
-0.000155719
-0.000265456
0.000374894
-0.00217049
0.00039607
-0.00301938
1.82936e-05
-0.00186892
-7.12313e-05
0.00036125
-0.00083019
0.000209321
-0.000205382
-0.000804234
-0.000316363
0.000300174
-1.73437e-05
-0.000133664
-0.000471457
-0.00166477
0.000328161
0.000105872
-5.74405e-05
0.000304836
8.13266e-05
0.00027971
0.000383845
-6.71916e-05
-0.000126182
6.2215e-05
0.000349476
0.000496521
0.000500886
-0.000716979
-0.00215568
-0.000110026
-0.000961835
0.000163041
-0.000654841
0.000207577
-0.000171839
-0.00230389
6.20165e-05
-0.00570268
0.000411328
-0.0030108
5.17175e-05
0.000104441
0.000275317
-9.56746e-05
0.000203087
7.69417e-05
0.000189183
0.0395865
-0.000499204
0.000362228
0.000362687
9.29641e-05
5.45694e-05
8.69558e-05
0.000134764
0.000222845
-0.00270373
0.00016197
-0.00307118
0.000553636
-2.59558e-05
7.69137e-05
0.000458078
-0.000237957
-0.0020131
-0.00266795
0.000228057
-0.002813
0.0001347
-0.000907133
-0.000135286
-0.00303245
0.000379872
-0.000323859
0.000190893
0.000516616
5.16739e-05
0.00017403
-0.00262783
-0.00260638
0.000134393
0.000178438
0.000121611
-0.000521798
0.00032249
0.000532095
-0.00299307
-0.00042434
-0.000772098
0.000334631
-0.000513054
0.000462928
0.000211683
0.000324226
-7.13816e-05
-0.00220183
-0.00305964
0.000170994
-0.000168535
-0.00130332
-0.00313129
0.000353929
-0.00288615
0.000182625
-0.00280215
-0.00274592
-0.000546167
-0.00253697
-0.000655413
0.000406781
-0.00219676
-0.00254958
-2.4667e-05
-0.000225253
0.000483816
-0.00130178
0.000410879
-0.000244563
-0.000196201
-0.00276221
-0.00292441
-0.00023858
0.000445642
0.00028699
0.000188314
0.000239577
0.000469423
-0.000109826
0.000240852
-0.000195782
0.000242006
-0.00041372
-0.00309955
-0.000142386
-0.00105733
0.000377256
0.000178996
0.000255107
-0.00033828
0.000376839
-0.000941374
-0.000170536
-0.00287091
0.000226263
-0.00220019
-0.000618649
0.000241681
0.000312756
-0.00300848
-0.00301796
-0.00261448
0.000296791
-0.00066108
-0.000206193
-0.00287614
-0.000143622
-0.000146351
0.00035819
0.000369162
0.000154321
1.30848e-05
-0.00282776
0.000411635
0.000145958
0.000214568
-0.000384878
0.000252682
0.000495271
0.000307559
9.8687e-05
0.000161582
0.000435911
0.000284352
0.000244429
0.000426691
9.52352e-05
0.000468708
0.00024616
0.000144697
0.000348983
0.000481806
-0.00289496
0.000478425
3.49165e-05
-0.000612683
0.000151287
-0.00212566
0.000234555
0.000477635
0.000268162
0.000215358
-0.00153517
0.000410701
4.54572e-05
1.91633e-05
6.09139e-05
0.000301489
0.0004165
0.000132795
0.000106573
9.83523e-05
0.000354862
0.000484668
0.000486229
-0.000490251
0.000533322
-0.000235655
-0.000150529
-0.000102714
0.000377868
-0.00297637
0.000246659
0.000339766
0.000319315
-0.00186255
-0.000988271
-0.0030877
-0.000181974
-0.000653606
-7.75882e-05
-0.000209279
-0.00181705
-0.000168417
-0.00191394
0.000308157
-2.19794e-05
-0.00295526
6.44262e-06
-0.00159609
-3.38546e-05
7.58277e-05
0.00011673
-0.00143096
6.69687e-05
1.4098e-06
0.000180484
0.000970124
-0.000931916
0.000468806
0.000465801
-0.00271659
-0.00182437
0.000363397
0.0003599
0.000480343
0.000478206
-0.00289061
1.11174e-05
-0.00168857
0.000485526
-0.000825077
0.000226442
-0.00222755
-0.000584517
-0.00252583
0.000490005
-0.000270961
0.000245535
0.000348221
0.000245002
0.000112245
-0.000674274
0.000159732
-0.00307277
0.000242525
0.000134563
1.56357e-05
-0.0029704
-0.00156274
-0.000155428
-6.59289e-05
-0.000138092
-5.57394e-05
0.00279281
-0.00118159
-0.00252326
0.000523787
-0.000714149
-2.82265e-05
0.000384582
3.04957e-05
-9.51869e-05
-3.7484e-05
0.000280501
-5.80694e-05
0.000476516
-0.00214874
-0.00070212
-0.00171354
-0.000120951
-5.21728e-05
0.000305203
-0.00271364
-4.22391e-05
0.000233698
0.000375617
-0.000730348
-3.88048e-05
-0.000182288
0.000685327
0.000249422
-7.05071e-05
-0.000189491
6.97283e-06
0.00143649
-0.000569706
0.000228119
0.000541893
0.000177195
-0.000375882
0.000512771
0.000308802
2.81116e-05
-0.00157097
0.000338491
-0.00276577
-0.00185937
-7.23269e-05
-5.47304e-05
9.84973e-05
-0.000158648
-0.00104861
0.000436101
-0.000975987
0.00047738
0.000419748
-0.000249346
-0.00286069
-0.00224113
0.00045561
0.000100326
-0.000333193
0.000272189
0.000492956
0.000530218
-0.0014653
-0.00221501
-0.00310112
-0.00316412
-0.00309958
-0.00201062
0.000441266
0.000307628
-0.00180099
0.000439305
0.000375378
-0.000192695
0.000201637
-0.00270356
-0.00123429
-0.00206506
-0.000962688
-0.00310161
-0.00449966
0.00046773
-0.000189369
-0.00102764
-0.0010766
-0.000382681
-9.22839e-05
2.10987e-05
-0.00302211
0.000273205
-0.000825494
0.0011181
0.000444041
0.000400561
0.000165084
8.10344e-07
-0.000197761
-0.00283257
0.000323959
0.000427283
-0.000326562
-0.00308916
9.48907e-05
-0.00123364
0.000492205
-0.000969063
0.00038842
-0.000249239
-0.00271081
-7.86244e-05
-0.00254888
-0.00274165
0.000428418
-1.16401e-05
0.000466685
-0.00290645
-0.00293431
0.000409326
-0.00012831
3.05704e-05
0.000338994
-0.00307192
-0.00269992
-4.78485e-05
0.000485269
0.000535942
-0.000224596
0.000443365
0.000269214
-0.00307927
-0.000187912
-0.00315319
0.000464727
3.53511e-08
0.000207192
8.6106e-06
0.000229876
-4.58823e-08
0.000216532
-6.75958e-05
0.000486479
-0.00315582
0.000106221
-0.000300853
0.000463067
-0.000222608
-0.00105133
-0.00226986
-0.00231692
-0.000867697
0.000177977
-0.000252619
-0.00259824
0.00019819
0.000231565
-0.000442745
-0.00010893
0.000212181
0.00017691
-0.00190781
-0.0028336
0.000127478
0.000472366
0.000508265
-0.00238861
0.000509617
-4.431e-05
0.000221852
0.000551191
0.000208242
0.00023781
0.000222604
0.000451836
0.000261552
0.000291123
0.000284977
-0.000917147
-0.00296099
-0.00279797
-0.00305887
0.000330674
-0.00275421
-0.00286076
-0.002735
-0.00296542
-0.00146085
0.000325133
-0.000316524
0.000423077
-0.000198465
-0.00251741
-1.82081e-05
-0.000389067
-0.00161331
0.000401321
-0.00062449
0.000507366
-0.0030718
-0.00281327
-0.000851588
0.000486604
-0.00284515
-0.00151844
-0.00239846
-0.00183206
-0.00217398
-0.000664709
0.000204058
-0.00276917
0.000300345
-0.00135384
-0.00300892
-0.00277043
0.000416563
0.000136722
0.000528234
0.000490828
-0.00243811
-0.00252701
0.000235306
-0.00304402
-0.000343403
-0.00257825
-0.000197374
-0.000151579
-0.00524183
-0.000136109
-0.00016392
0.000519077
-0.00301113
0.000115648
0.000335898
0.000389618
-7.9985e-05
0.00038052
-0.00198382
-0.00112838
-0.00145698
-0.000210627
-0.000671234
0.000504195
4.45271e-05
-0.00305058
0.000473371
-0.00288619
0.000271822
0.00026546
0.000237846
-0.00182687
0.000234191
0.000389281
3.35848e-05
-0.0003091
-0.00130991
0.000502579
0.000317085
-2.37186e-05
0.000200262
0.000206186
-0.002872
-0.00232929
-0.000134216
0.000471184
-0.00270671
-8.58857e-05
0.000388151
-0.00190941
-0.000520218
0.000557406
0.000426656
0.000513886
0.000559098
0.000526276
-0.000446978
-0.00054463
-8.29985e-05
-0.000145168
0.000549412
-0.000182617
0.000346144
-9.44083e-05
-9.57608e-05
0.000533023
-0.00294911
0.000546988
-2.68217e-05
0.000532137
0.000534397
-0.00284458
0.000308703
-0.00289247
-0.00161731
-0.000225797
0.000462081
0.000552787
-0.00067126
0.000253693
0.000130849
4.27427e-05
8.16399e-05
0.000555707
6.19003e-05
0.000284995
-0.000601209
-9.99174e-05
0.000193434
0.000533843
0.000547314
0.000457998
-0.000237858
0.000267811
-0.00297717
0.000354366
-0.00301096
-0.000150048
-0.00197658
0.000228366
0.000497203
-0.00258492
0.000216664
0.000350727
0.000476167
-2.79817e-05
-0.00278055
0.00035846
-7.2702e-06
-0.00108964
-4.10004e-05
3.84197e-05
-0.00108067
-0.000576094
6.08224e-06
2.39232e-05
0.00046783
-8.89028e-05
0.000388145
-0.000199688
-0.00273894
0.000468392
0.000433327
-0.00289794
0.000496056
0.000201988
-0.00275568
3.40773e-05
-0.000378837
0.000131098
0.000526887
0.000397348
0.000459254
-0.00283494
-0.00227043
-0.00149829
-0.00248713
-0.00290083
-0.0008026
-0.00137216
0.000489105
0.000494742
-0.00297252
0.000485338
-0.00248482
-0.00240347
0.000512652
-0.00284876
0.000555489
-0.00245438
0.000537416
-0.00255753
-0.00164798
0.000532073
0.000188473
-0.000190556
0.000559735
-0.000136944
0.000401388
-0.000213477
0.000559913
0.000303633
0.000162074
0.000528661
-0.000698074
0.000558713
0.000175455
0.000132425
-0.00133898
0.000484814
-0.0029596
0.000236456
0.000109056
-2.14726e-05
0.000489835
0.000317122
0.000496558
-0.000484123
0.000507915
-2.17493e-05
-0.00309739
-6.57729e-05
0.000435109
0.000163735
-0.00195529
-0.00126206
-0.0015656
-0.00239224
-0.00288603
0.000147097
-4.29964e-05
-0.000161463
-0.000103181
-0.00191784
-0.000178238
-0.00265228
0.000342632
-0.00042797
0.000161569
0.000493516
0.000393842
-0.000158037
-0.000132755
-0.00115843
6.68414e-05
-0.000116367
-0.00106918
0.000454078
0.000402158
-0.00254241
-8.34236e-05
0.000305466
-0.00202149
-0.000106319
0.000351945
-0.00296496
-0.00235256
-0.00285445
-4.03935e-06
0.000549489
0.000493396
-4.89442e-05
5.75265e-05
-4.45317e-05
-0.000392665
0.000548325
-0.00305743
0.000199609
0.00055461
8.37941e-05
-0.00249824
6.45752e-05
0.000548141
-0.000377215
0.000499998
-0.00185321
0.000451137
-0.00026798
0.000441903
0.000465975
-4.28606e-06
0.000556195
0.0005337
9.79202e-05
0.000182257
-0.00230143
-0.00048256
-0.00307417
-0.000870217
5.43387e-05
-0.000160431
0.000403719
0.000461334
-0.00283582
5.83792e-05
0.00038625
-0.000270998
-0.00154387
0.00055754
-0.000301239
-0.000148475
5.03926e-05
-0.00110869
-4.99018e-05
0.00055162
-0.00299758
0.000556386
0.000317978
2.23067e-05
-0.00301894
0.000416852
0.000354341
0.000372537
-0.00152291
0.000521093
0.000179298
0.000347382
0.000359373
0.000112434
-0.00272474
0.000153223
-0.00292883
0.000330924
0.00104505
-0.00172389
0.000160094
0.00035828
0.000435034
0.00020939
0.000426638
-0.00276307
0.000537611
0.000420647
-0.00280356
-0.000108464
0.000319839
-8.97324e-05
-0.00119921
-0.000286444
-0.00230407
-0.000180021
-0.00194195
-0.00300921
-0.00302561
-0.00271158
-0.000483667
-0.00087698
0.00019895
0.000448717
-0.0020149
-0.000153242
0.000339784
0.000417651
3.20094e-05
0.000449492
0.000254789
7.15101e-05
-0.00068296
0.000498177
-0.00166308
-0.00297168
0.000430835
0.000434705
-0.00134743
-9.04706e-05
0.000473949
-7.56849e-05
-0.00290776
0.000525799
-0.000134935
0.000292929
0.000503568
0.000483422
-1.16181e-05
0.000473786
0.000344717
0.000430719
-0.000241114
0.000459145
0.000469773
0.000306363
0.000414197
0.000355311
0.000277756
-3.74906e-05
-0.000390602
0.000314845
8.37677e-05
0.000317033
0.000242358
-0.000630214
0.00019174
0.000152142
-0.00285811
-0.000147553
0.000507114
-4.3183e-05
-0.00143703
0.000550186
0.000480773
0.000437504
-0.00314996
-0.00170262
-0.00111428
-0.0011174
0.000402479
-0.000248319
-5.24468e-05
0.000361656
9.3251e-05
0.000526819
0.000400587
-0.000133794
0.000211354
-0.000141992
0.000497804
-1.58361e-06
-0.00157562
0.000110387
0.000511651
0.000482457
0.000464549
-0.000111778
5.16288e-05
0.000301408
-0.000162783
-0.000819856
-0.00163517
0.000401992
-0.0010729
-0.00166765
-0.00129193
0.000528328
-0.000107866
0.000505618
3.60471e-06
-0.000195104
-0.00142016
-0.00059127
0.000557701
1.9747e-05
0.000560156
0.000224527
-0.000133892
-2.93073e-05
0.000105795
-0.0023917
-0.000198153
-3.19014e-05
2.74925e-05
-0.000184196
0.000379364
-4.87704e-05
-0.000103632
-0.000464889
-0.000161008
7.63018e-05
0.000480162
0.000412919
-2.16756e-05
-0.00294492
-0.000690076
-0.000583757
2.46078e-05
0.000251911
0.000313975
-0.00115617
0.00052339
-2.0273e-05
-0.000153265
-0.000591161
-0.00308891
0.000469675
-0.00137597
2.87398e-05
0.000195039
-0.00171535
0.000516094
-0.00089541
1.33357e-05
-0.00234678
-0.00302412
0.000493049
-0.00289698
0.000120322
0.000526062
0.000481561
0.000272791
0.000484191
-0.00300917
-0.00306398
0.00047334
0.00022596
0.000125662
0.000298806
-0.000377967
-0.000980478
0.000414998
0.00031695
-0.000170689
0.000208311
-0.00321017
0.00292872
0.000348185
-0.000218859
0.00016642
-0.000165908
-0.00295934
-0.00143214
-0.00307733
-0.00294972
0.000488965
0.000483114
0.000497662
-4.38606e-05
-2.6849e-05
-0.00113766
-0.00100521
-0.000993181
-2.82792e-06
-0.00275386
0.000366734
0.000480863
0.000480534
0.000485465
0.00041779
0.000271596
-0.000166423
-9.14241e-05
-0.000270512
-0.000103355
-0.000252678
0.000485728
-0.00221852
0.000518743
0.000395197
0.000521274
0.000260555
-0.000191892
-2.91506e-06
-0.000872708
-0.000436317
8.13402e-05
-0.000524806
-0.000574519
-0.00292513
0.000440701
-0.00281068
-0.00295511
-0.00258314
0.000444761
-0.000647656
3.0406e-05
0.000325688
0.000361719
-0.00120514
-0.00149368
-0.000263942
0.000373613
0.000334309
-0.000355514
0.00052908
-0.00173008
-0.000110321
-0.00275419
0.000444538
0.000430646
-0.00245028
-0.000971332
-0.0010473
-0.0029397
-0.000236188
0.000103959
-0.00279039
-0.000636614
0.000348238
0.0004258
-0.00170741
0.000398515
-5.94456e-05
-0.000349669
-6.89057e-05
0.00040822
0.000470965
-0.000990302
-0.00295819
-0.00184598
-0.00148949
-0.00175534
0.000412883
-0.00242787
-0.000318572
-0.00070922
-0.0022703
-0.000511614
-0.00176963
0.000206377
0.000309826
0.000492964
-0.000206129
1.1111e-05
0.00051651
5.36165e-05
-2.74359e-05
-0.00206951
-0.000176509
-0.000724743
-0.000116442
-0.00150444
-8.15891e-05
-0.000178571
-8.52907e-05
-0.000176824
-0.000131267
0.000153137
-0.000184045
-0.000131273
0.000427647
0.000423131
-0.00290956
0.000133352
-0.00140407
0.000254645
3.30931e-05
0.000388938
0.000173542
0.000521716
0.000523016
0.000321984
-0.000881907
-0.000541555
-8.85509e-05
-0.000722066
-7.47947e-05
-3.59377e-05
0.000196501
0.000369524
0.000440764
-2.51248e-05
-0.000152689
-5.37132e-05
0.000467261
-0.00292853
-0.00242323
0.000497741
0.0001513
0.000483035
-0.000288407
-4.29707e-05
-0.000591288
-0.000745614
-9.18765e-05
-0.000644518
0.000284934
-0.000656898
7.56496e-05
1.33948e-05
0.000385121
-0.000146537
-0.00069937
-0.00046135
-0.0029257
0.000213029
-0.000787387
-0.00303342
-0.000361316
0.000477935
-0.00276659
0.000331128
0.000124847
0.000114763
-0.000680999
-0.000231887
-0.00085882
-0.00201781
0.000164307
-3.05926e-05
-0.00250055
-0.0028572
-5.67055e-05
0.000457701
-0.00267702
3.75161e-06
0.000472212
-0.000972712
-8.46441e-06
-0.000245244
-0.00130287
-0.00271063
-0.00139696
-0.00105757
-0.000637463
0.00020205
0.00011602
0.000198282
0.000141966
3.29229e-05
-0.00163649
-0.00300498
-4.5571e-05
2.59126e-06
-0.00223632
-0.00227335
-0.00191749
-0.000839383
-0.00025387
-0.00118571
0.000496075
-0.000121898
3.20231e-05
0.000389385
-0.000172821
0.000492934
0.000410332
-0.00163604
-0.000400931
0.000526985
-0.00164166
-0.000225467
-0.000205814
0.000495049
0.000335276
0.000158731
0.000494525
0.000526181
-0.00277558
0.000425436
6.53768e-05
-8.10132e-05
-0.00266014
0.000352776
-0.000280462
-0.00101968
-0.0029488
-0.00294695
-0.000785603
-0.00300198
-0.00176008
-0.00112702
-0.00283798
0.000268593
-0.00306933
0.000202501
-0.00239906
-0.00215624
-0.00184633
0.000452919
-0.00266467
-0.00272521
-0.00306951
-0.00234265
-0.00290408
1.40993e-05
-0.00282966
-0.00273758
-3.81284e-05
-0.00234215
-0.00183546
0.000165109
8.48484e-05
-0.00227963
-0.000249996
-0.00217746
-0.00157147
0.00038036
-0.00131535
0.000193765
-0.00157914
-0.000969427
-0.00104645
0.000197365
-0.00175685
-0.000791842
-0.00278506
0.000261255
0.000478351
-0.00277901
-0.00288772
0.0329727
-1.78311e-05
4.06032e-05
-0.000780244
-0.00282402
0.000131713
-1.55205e-05
-0.000356702
-0.00234548
-0.00284339
0.000204812
-0.00256009
-0.00297906
-0.00254546
7.82918e-06
-0.000114306
-0.00132832
-0.000166928
0.000410182
0.0004624
0.000422184
-0.00109312
-0.00170349
0.000501712
0.000379219
-0.00239914
-0.00198793
-0.00280192
-0.00284297
-0.000918598
-0.000464025
0.000364624
-0.00223847
-0.00223767
1.89688e-05
-0.00279909
-0.00168895
-0.00282391
-0.00301552
-0.00257666
-0.00287335
-0.000529017
-0.00223654
-0.00226667
0.000347176
-0.00203237
-0.00294021
-4.81038e-05
-0.00173846
0.000498258
-0.00187809
-0.00292432
-0.000783349
-0.00287667
-4.3056e-05
0.000255118
-0.00300102
-6.28953e-05
0.000212376
-0.00205263
0.000496973
0.000481103
-0.00246394
-0.0018374
-4.92877e-05
-0.000134798
0.000300858
0.0003101
-0.00158145
9.58477e-05
0.000375871
-0.000210401
0.000264424
-0.00270925
0.000405921
-0.00152521
-6.8968e-05
0.000193903
0.000253431
-0.000377137
-0.00238153
-0.0027625
-0.000974816
-0.00118254
0.000212233
-0.000422629
3.8206e-05
-0.00157551
0.000331313
0.000498288
6.37243e-05
-0.00296815
-0.00273146
-6.08068e-05
0.000418529
-0.00128449
-0.00293615
-0.000113846
-0.0030957
0.00019857
-0.0030947
-0.00304566
-0.000960551
-0.00286552
0.000116642
-3.49465e-05
-0.00148982
-0.00135345
0.000155022
0.000162604
-0.000740269
-0.00263699
-0.00232888
-0.000245521
0.000159832
0.000382845
-0.00312238
-0.00289522
-0.00226266
-0.00276365
-0.00278802
-0.00312389
0.00030389
-0.00145594
0.000104908
0.000336156
-0.00102506
0.00032
-0.00279838
0.000410687
0.00048363
0.000262885
-0.00300589
-0.00288648
0.000234147
-0.00237865
-0.000110458
-0.00246388
-0.00273007
0.00015333
0.000279264
-0.0029776
9.73986e-06
-0.00177073
0.000418192
-0.00300019
-0.001442
-0.00271094
-0.00219488
-0.00280593
-0.00303431
3.69891e-05
-0.00188405
-3.33825e-05
0.000268038
-0.00016065
0.00036666
-0.00145764
4.97247e-05
-0.00232729
-0.00303748
8.87193e-05
0.000419623
0.000245704
0.000319896
0.000427668
-0.000266163
0.000134031
0.00042678
-0.00200716
0.00049886
0.000300581
-0.00281028
-0.00159071
-1.34569e-06
-0.000645414
-0.00288551
-8.28933e-05
0.000385154
0.000100425
-0.0030622
7.25621e-05
-0.00133655
0.00015833
-0.000496556
0.000264837
-0.00121941
6.80868e-05
-0.000772683
-0.00134787
0.000480619
-0.000351247
2.14415e-05
-0.00310566
-0.000202052
-0.00291798
0.000342766
-0.00211388
-0.00310348
-0.000804316
-4.88662e-07
-0.00276717
-0.00195983
-0.000762237
0.000411032
0.000519004
-0.000133261
-0.000748895
-0.00185266
-0.00270051
0.000509347
-0.000139912
0.000410491
-0.000133591
-0.00139198
-0.00148251
-0.00120193
-0.000372869
-0.00241851
0.000418684
-7.39571e-05
-0.000236701
0.000482067
-1.30593e-05
-0.00288053
-0.00135365
0.000344413
-0.000144484
0.000232343
-0.00287388
-0.00276224
-7.02597e-05
0.000256621
-0.00258418
0.000442755
0.000474836
7.81172e-05
0.000429178
-0.000142071
0.000235002
-0.000120779
-0.00130366
-0.00155417
0.000554463
0.000556104
-0.000241498
-5.82477e-05
0.000347393
0.000278172
-9.62152e-06
-8.46204e-05
-0.00137948
-4.23366e-05
-0.00238149
-0.00288528
-0.00303792
0.000482722
-0.000144032
-0.00292543
-0.00011275
-2.47206e-05
0.000375429
0.00039325
-0.000795314
3.54675e-05
-0.000103986
0.000377598
-0.00021195
0.000539323
0.000491229
-7.49046e-06
0.000425859
0.000473265
0.00047264
-0.000338394
-8.68408e-06
-0.00149214
-9.24742e-06
0.000174537
-0.00213906
0.000165651
-0.000237639
-0.00249486
-0.000107738
-0.000549375
-0.00105861
-0.00156798
-0.000115919
-0.00294987
0.000342042
0.000135731
0.000155848
0.000499254
0.000367417
0.00016418
-0.000154649
0.000436553
-2.80512e-05
0.00047372
-0.00115191
0.000420294
0.000424464
0.000421381
0.000377071
0.000203899
0.000414587
-9.52009e-05
-0.000125923
-0.000147189
-0.000127575
-0.00282121
0.000257966
-0.0028478
-0.00299589
-4.94518e-05
0.000487415
0.000506339
-0.0027289
0.000502506
2.51133e-05
-0.00137402
0.000170559
5.3776e-05
0.000384097
-0.000194802
1.20753e-05
-0.00130791
0.000414275
0.000242149
-0.00208475
0.000415181
-0.00135435
-0.000876906
0.000280344
-0.000963444
-0.000844856
0.000176588
-0.00298224
-0.000907461
-0.000472016
-0.00107784
-0.000986286
0.000196966
-0.00313191
-0.00212631
0.000277146
-9.95455e-05
-0.000733071
-0.000659299
-0.0011169
-0.000103149
-0.00184107
-0.000731436
-0.000284861
8.90026e-05
0.000117536
-0.00175644
6.77784e-05
-0.000460039
-0.00313485
-0.000578984
-0.00254762
-0.00320801
0.000354541
0.000258297
0.000277469
-0.000179577
0.000401591
0.000460067
-0.00235229
-0.00244315
-0.00100731
1.67489e-06
-0.00299857
-0.00284077
0.000116046
0.000371031
-0.00140834
0.000244192
-0.000156962
-0.00320949
-0.000466249
-0.00237966
0.000413578
-0.00230147
0.000289522
5.73297e-05
0.000206941
0.00012803
-0.00256519
-0.000937859
0.000271942
-0.00257037
-0.00256544
-0.00192827
0.000122955
5.33145e-05
-0.00108291
-0.00283506
-0.00226555
-0.00295943
-0.00296624
-0.00293281
-0.001715
-0.000983246
-0.00183926
0.000297642
-0.0013587
-0.00236909
-0.0016426
-0.00233348
-0.00287937
-0.00227361
-0.00107132
-0.000747809
-0.000940819
0.000399858
-9.06678e-05
0.000245362
-4.09456e-05
8.63912e-06
-0.00135181
0.000500892
-0.00295981
-0.00278298
-0.00207929
0.000530927
0.000341964
-0.00314122
-0.000136526
-0.00122611
0.000268752
-0.000371934
-0.000146066
-0.00014228
0.000234962
9.46559e-05
-0.00309618
-0.00193701
-0.00298866
3.28332e-05
3.75808e-05
0.000204264
0.000365764
-0.000110768
0.000449875
0.000426967
0.000146517
0.0003856
-0.00295848
0.000299008
0.000350334
0.000357549
-0.000397764
0.000516473
-0.00309871
-0.00305103
9.90438e-05
-0.00256914
-0.00302623
0.000159337
-0.00189041
-0.00181809
0.000324713
-0.000660909
-0.000709952
0.000441823
-0.000205305
-0.00138604
-0.000202729
-0.00317772
-0.00145606
-0.000875335
-0.00240578
-0.000977337
-0.000734833
-0.00292655
-0.00285958
-0.000228088
-0.000124533
-0.00284107
-0.00223281
-3.673e-05
-0.00214613
-0.00303458
-0.00289047
-0.00249819
-0.00193061
-0.00271135
-0.00313302
0.000386088
-0.00197088
0.000144554
-0.00160709
-0.0028638
-0.00306129
0.000269181
-0.00278076
-0.00118517
-0.00206741
-0.000487261
0.000488712
5.50352e-05
-0.000466024
-0.000606557
-0.00217909
0.000162394
-0.00246626
9.51405e-05
-0.00041211
6.61703e-05
0.000357422
-0.00315019
-0.00278617
0.000144447
9.83056e-05
-0.00271531
-2.30804e-05
-0.00128494
0.000216847
-0.00308853
-0.00145787
-0.00299057
-0.000793794
-0.000578542
-2.53062e-05
-0.000192129
0.00042348
-0.00295941
-0.000960532
-0.00245066
-0.000113836
-1.91325e-05
-0.00214666
0.000249837
-0.00309996
0.000294563
-0.00310439
0.000117716
0.00020877
-0.00289873
-0.00252742
0.000233467
-0.000264806
-0.00317992
-0.00293893
-0.000777873
-0.00162524
-3.65598e-05
6.94105e-05
0.000420865
-0.000500692
-0.00135486
-0.00103921
2.70896e-05
0.000346034
0.000421825
0.00042011
0.000424537
-0.00310574
0.00036638
-0.00188998
-7.019e-05
-0.00318111
0.000136275
0.000400581
-0.00296728
-0.00120548
0.000338882
-0.00276984
-0.000120734
-0.00295571
-0.00300242
0.000306391
0.000325619
-0.00103702
-0.000654655
-0.0030369
-0.00287109
-0.000416569
-0.00148247
0.000118537
-0.000694059
-9.50339e-05
-0.00272409
-0.002269
-0.00242982
-0.0022745
0.000432814
-0.00288898
-0.0027095
0.000442057
-0.00186915
-0.00279597
0.000451558
-0.000193603
-0.00242986
0.000466232
-0.000299892
0.000524973
-0.00112728
-0.00208541
-0.00207998
0.000417235
0.000343155
-0.00278488
-0.000491412
-0.000545916
0.000276155
0.000418773
7.18769e-05
2.90322e-05
-0.00239116
0.000404544
0.000108529
0.000369041
0.000454704
-5.87155e-05
0.000101065
-0.000512327
0.000107222
0.000243082
0.000310218
0.00045795
0.000476141
-2.99949e-05
-0.00278554
0.000109813
0.000374666
-0.000435043
-0.00224246
0.000439462
-0.000135611
-0.00296107
0.000151346
0.000210785
0.000369657
-0.000150779
0.000438074
0.000458798
0.000417944
0.000222715
-0.00106887
-0.000258883
-0.00235236
0.000310536
-0.000283307
4.78803e-07
8.00368e-05
-0.00110679
-0.0020792
0.00020588
-0.000309144
-0.00130869
-0.00140101
-0.000246797
-9.7969e-05
0.000447516
-0.000899943
-0.00295804
0.000195927
-0.00277543
-0.000200603
-0.00129793
-0.000737125
-0.000146454
0.000561701
-0.00127463
-0.000348396
-0.00198832
-0.00017984
0.000123986
6.12962e-05
-0.00286044
-7.15506e-05
-0.000126784
-0.00130208
-5.22275e-05
0.000560854
0.000415226
-0.00103286
-7.64604e-05
-7.09753e-05
-0.00130311
-6.23206e-05
-0.00212108
5.80762e-05
-6.98363e-05
-5.1857e-05
-4.17709e-05
0.000513969
0.00019108
-0.00110221
-3.01041e-05
0.000288504
0.000321447
-0.00112881
1.42632e-05
0.000142145
-0.00165596
-0.0012876
0.000366861
0.000491848
0.000247098
-0.000638636
-0.00130427
-0.00115316
-0.001014
0.000178319
0.000445168
0.000511701
0.000348127
-0.000963024
0.000243185
-0.000500884
0.000464692
0.000355327
7.81885e-06
0.000341631
-0.000887253
7.85884e-05
-0.00167691
0.000223025
6.46127e-05
-0.000848224
0.000206755
0.000112207
0.000346587
-0.0025997
0.000166127
-0.00285892
0.000183866
0.00025517
-0.00302948
0.000254777
7.34032e-05
0.000410913
-0.000233293
-0.00297169
-0.00275782
0.000111491
0.000236826
-0.00311468
0.00021267
0.000398542
0.0002488
-0.00311298
-0.00278403
-0.000664112
0.000412202
-0.00100439
0.000408501
0.000486064
0.000297829
-0.00292671
-0.000100953
0.000543969
0.00050736
-0.000721602
-0.00066022
-0.000112232
0.000524555
-0.00302389
5.61486e-05
0.000237534
-0.00219517
-0.000102293
-0.00254057
5.07254e-05
3.16569e-05
0.000293685
0.000454517
0.000312935
0.000125974
-0.000312819
6.71607e-05
0.000163264
0.000111586
-3.59696e-05
-0.00273644
0.000359195
0.000304252
-0.00301026
0.000248888
0.000207013
-0.00174063
-0.00170007
0.000225919
-0.00104651
-0.00288597
-0.00114145
-6.64285e-05
-0.00093148
-8.07937e-05
0.000529757
0.000296024
0.000483217
0.000273943
-6.46929e-05
0.000262888
0.000479585
-0.00021013
-0.00091566
0.000185573
-0.000159619
-0.00130165
-0.000130468
-0.000693403
-0.00157366
-0.00108095
-0.00161988
-0.000107769
2.33525e-05
-0.00135074
-0.00304894
-0.000480271
-0.00137913
-0.00011312
-0.000708005
-0.000154921
0.000459918
-0.00149693
-2.18054e-05
-0.000944044
-0.00205163
-0.00271228
2.10048e-05
-7.15529e-05
-0.00295656
-0.00204918
3.85842e-05
-0.00309659
-0.000297857
-0.00134716
0.000475045
0.000490364
1.72329e-05
0.000298115
7.9296e-05
0.000133233
0.000491409
-0.00302095
-0.0031612
0.000517469
0.000526474
-0.00316262
-0.000109814
-0.00302094
0.000498334
-0.000540016
0.000407711
-0.000212532
-0.00286295
0.000529219
-0.00281665
0.000261407
0.000125013
-0.00300217
-0.00208318
0.000223943
-0.000687156
-0.00286414
0.000330791
0.00053604
-0.00306797
0.000332264
0.000481075
-0.00279014
0.000248014
0.000535731
-0.00139681
0.000248186
5.63241e-05
0.00024521
-0.000490854
-0.000360689
-0.0022387
-2.87608e-05
-0.000148637
-8.04749e-05
-0.00301443
-0.000193897
-0.00223838
-0.00173427
-0.00287226
-0.00200473
-1.2681e-05
0.000269526
-0.0029215
-0.00241186
0.000109104
-0.00302272
-0.00110302
-0.00235295
-0.00253981
-0.00280548
-0.00101967
-0.00275095
0.000374111
-0.00106364
1.43833e-05
-0.00308309
9.05232e-05
-0.00011821
-0.00144871
-0.00288781
-0.00571063
-0.0052093
-0.000962358
-0.00517478
-0.000111404
-0.0028537
-0.00299332
-0.0013125
-0.000465259
0.000193005
-0.00185025
-0.00293198
0.000241271
-0.00168656
-6.85085e-05
-0.00128224
0.000380599
-0.00209982
0.000356275
4.48477e-05
-0.0016055
-0.00307419
0.000486859
0.000195159
-0.00285366
-0.00105275
-0.0028932
0.000432528
-0.000148528
-0.00271113
0.000498014
-0.00238859
-3.94611e-05
-0.00146325
0.000163097
-0.0028513
-0.000286724
0.000387701
-0.00302183
-0.00175382
0.000359298
0.000351742
-0.0027577
-0.000408506
0.000338901
6.0302e-05
-0.00180608
0.000452459
-0.000595537
-0.00211368
0.000143938
-0.00289729
9.75557e-05
-0.00117657
-0.00208095
-0.00198951
0.000346235
0.000316976
-0.000541265
-0.00252965
-0.0014342