/*--------------------------------*- C++ -*----------------------------------*\
| =========                 |                                                 |
| \\      /  F ield         | OpenFOAM: The Open Source CFD Toolbox           |
|  \\    /   O peration     | Version:  v2012                                 |
|   \\  /    A nd           | Website:  www.openfoam.com                      |
|    \\/     M anipulation  |                                                 |
\*---------------------------------------------------------------------------*/
FoamFile
{
    version     2.0;
    format      ascii;
    class       volScalarField;
    location    "1";
    object      alphat;
}
// * * * * * * * * * * * * * * * * * * * * * * * * * * * * * * * * * * * * * //

dimensions      [1 -1 -1 0 0 0 0];


internalField   nonuniform List<scalar> 
108993
(
0.000114513
0.000108791
8.52788e-05
0.000118795
0.00011903
6.70211e-05
0.000104023
9.55575e-05
0.0001178
0.0001099
0.000124798
0.000123817
9.87466e-05
9.98195e-05
0.000105805
8.91965e-05
9.35489e-05
0.000106847
0.000100511
0.000107079
8.71342e-05
0.000112564
9.59423e-05
0.000117965
0.000115136
0.000107085
0.000104153
0.000114139
0.000126733
7.76696e-05
0.000131187
0.000122511
0.000118503
0.000120551
0.000101011
0.000119052
0.000105488
0.000117827
9.67895e-05
0.000105649
0.000133233
0.000126467
0.000108951
0.00011795
0.000106601
7.92962e-05
0.00011874
0.00010442
0.000136635
0.000116473
0.00011921
0.000131344
0.000111121
0.000114714
0.00012179
0.000125555
0.00010772
0.000111357
9.45518e-05
0.0001276
0.000113643
0.00011564
0.000112739
0.000100932
0.000109144
0.000127286
9.32842e-05
0.000122747
0.000132285
0.00011707
0.000110651
0.000106494
0.000117698
0.000114094
0.000103064
0.000135842
9.58092e-05
0.000135379
0.000113378
0.0001123
0.000108344
0.000102774
9.97883e-05
9.7895e-05
0.000126918
0.000106821
0.000127268
0.000103645
0.000109074
0.000123302
0.000110633
0.000101333
0.000122968
8.78536e-05
0.000118838
0.00011709
9.67053e-05
8.4295e-05
9.62568e-05
9.84728e-05
0.000121045
0.000135388
0.000132176
0.000126861
9.03715e-05
0.000121407
0.000126855
0.000129236
0.000124301
0.000127592
9.95512e-05
0.000109674
0.000108192
0.000115296
0.000117382
0.000100265
0.000102025
9.55735e-05
0.000132013
0.000115204
0.000111874
0.000106028
0.000106966
7.83897e-05
0.00010478
0.000113499
0.000117557
0.000103308
9.64648e-05
0.000121613
0.000104357
0.000123187
0.000129233
9.53938e-05
0.000113063
9.66794e-05
0.000107767
0.000102091
0.000100572
0.000108375
0.0001002
9.67451e-05
0.000108366
0.000109665
0.000120579
0.00011623
9.55185e-05
9.40929e-05
0.000108916
0.000110662
0.000111406
9.41495e-05
9.36537e-05
0.000121019
0.000115825
0.00011056
0.000134618
0.000119034
0.000124497
0.000113477
0.000122866
0.000124461
0.000569699
0.000106737
0.000109127
0.000120715
0.000109713
9.54255e-05
9.41662e-05
0.000130638
0.000120768
0.000120429
0.000120616
0.000101385
0.000110203
0.00010749
0.000102073
0.000102024
0.000122727
9.94099e-05
0.00010281
9.62373e-05
0.000106045
3.8733e-05
0.000132615
0.000116585
0.00010773
0.000116112
0.000116331
4.31188e-05
0.000116202
0.000116069
0.000101927
0.000114601
0.000123305
0.000110058
0.000128977
0.000117813
0.000125834
4.77645e-05
0.000122523
0.000121995
8.67656e-05
9.83855e-05
0.000119539
8.57758e-05
0.000104231
0.000117087
0.000110334
9.24282e-05
9.85696e-05
0.000106709
9.60121e-05
0.000105369
9.21096e-05
8.21311e-05
0.000102581
0.000114829
0.000108857
0.000137986
0.000113622
0.000100088
0.000121245
0.000109083
0.000102705
8.99949e-05
0.000102945
0.000127207
0.000120783
9.51759e-05
5.96942e-05
0.000116197
9.65167e-05
9.55942e-05
0.000106864
9.41354e-05
0.000120311
0.000105476
0.000107547
0.000106108
8.17097e-05
0.000122174
7.70504e-05
0.000113459
0.000125841
0.000107642
0.000111016
0.000110461
0.000115889
0.000126085
0.000334592
0.000113693
0.000110149
0.0001215
0.000116613
0.000112783
0.000114538
0.000111277
0.000129971
7.65402e-05
0.000113985
9.76439e-05
0.000127068
9.51263e-05
8.70462e-05
0.000113425
0.000126276
0.000131882
7.61731e-05
0.000112233
8.32276e-05
9.03385e-05
0.000116426
0.000102422
0.000106972
0.000107351
0.000122781
0.000130962
0.000125349
0.000112947
0.000122014
9.05082e-05
7.87449e-05
0.00010392
0.000120073
0.000115091
8.98626e-05
0.000121197
0.000129681
6.83371e-05
0.000110967
9.69206e-05
0.000125
0.000120034
0.00011441
9.59611e-05
0.000132458
0.000112063
9.60182e-05
6.86879e-05
9.85275e-05
9.36252e-05
0.000122545
9.10505e-05
0.000117533
9.41463e-05
8.46597e-05
9.96311e-05
8.83962e-05
0.000125081
0.000123315
0.000122872
9.92089e-05
0.000108233
0.000124924
0.000100635
8.21558e-05
0.000102641
0.000107171
0.000132966
0.000108364
8.40429e-05
8.39299e-05
7.99956e-05
9.31704e-05
0.000106606
0.000106329
0.000128431
0.000106063
0.00012852
0.000136034
0.000132986
7.4487e-05
0.000108446
0.000108705
0.000106242
0.000115247
0.000118753
0.000117579
0.000104178
0.000110241
0.000107918
0.000104133
0.000121208
0.00010476
0.000108468
0.00010301
0.000102364
0.000100978
9.67352e-05
0.000118629
8.11768e-05
8.1048e-05
0.000107419
0.000105978
0.000112822
0.000103036
7.54849e-05
0.000105891
6.81307e-05
0.000136507
0.000103272
8.93101e-05
0.000108402
0.000115533
0.00012303
0.000121502
0.000103328
0.000109485
0.000119555
9.47333e-05
0.000121293
9.89466e-05
0.00011241
0.000138839
0.000118057
0.000125505
0.00015102
9.27123e-05
0.000120764
8.65029e-05
9.04003e-05
0.000126447
9.61421e-05
0.000108863
7.79783e-05
0.000104581
9.37924e-05
0.000108419
0.000126078
8.99774e-05
8.20425e-05
8.8762e-05
9.91738e-05
9.51793e-05
0.000154789
0.000102595
0.000114576
0.000107593
0.000111634
0.000152115
0.00010502
9.38388e-05
0.000115288
0.000118359
8.30957e-05
0.000103399
7.37051e-05
0.000105762
9.37061e-05
0.000105619
0.000101932
9.29505e-05
0.000100988
0.000116293
0.000127468
0.000115515
0.000104121
6.84673e-05
0.00010625
0.00011157
0.000110651
8.44346e-05
8.85126e-05
0.000122281
7.36855e-05
0.000120077
8.27811e-05
9.47233e-05
7.73738e-05
9.29154e-05
0.000111005
0.000104449
0.000105711
0.00010612
0.000115106
0.00010292
0.000118849
0.000124997
0.000104217
0.000108263
0.000106387
0.000130306
7.83042e-05
0.000119068
0.000125354
0.000101079
0.000124603
0.000108216
8.45007e-05
0.000111176
0.000113797
0.000123909
0.0001446
0.000135813
0.000112201
0.00011232
0.000108064
0.000134458
0.000100664
6.99951e-05
0.000111027
7.3853e-05
0.000115383
0.000111654
8.77389e-05
9.45166e-05
8.97071e-05
8.25902e-05
0.000100309
7.46417e-05
0.000120029
0.000118117
0.000107913
0.000127501
0.000100265
0.000103621
0.000123616
0.000100777
0.000120978
0.000102466
0.000132587
0.000127109
0.000120935
7.89559e-05
9.99389e-05
9.98112e-05
9.0549e-05
0.000105143
0.000125814
0.000113191
0.000124055
9.36314e-05
9.51271e-05
0.000109173
7.98759e-05
9.47081e-05
0.000121556
8.85273e-05
0.000109582
9.19063e-05
0.000113853
9.10703e-05
0.000114268
0.000120635
0.000120215
0.000109441
0.000101849
0.000100228
0.000111771
0.000119596
0.000104616
0.000123902
0.000128449
0.000113105
0.000106003
9.72558e-05
0.000112139
0.000130003
0.000135099
8.30764e-05
8.14317e-05
0.000115253
0.000119334
0.000129479
0.000106285
0.00010754
0.000119149
0.000108498
0.000127813
9.10124e-05
0.000105459
9.87827e-05
0.00010398
0.000106406
0.000128257
0.000104737
0.000119193
0.000124145
0.000104083
9.09482e-05
0.000113319
0.000110369
0.00012846
0.000127895
0.00010888
9.16293e-05
0.000100515
0.000125861
9.11165e-05
9.94492e-05
9.53242e-05
9.45009e-05
0.000135456
0.000125337
9.13083e-05
0.000147882
0.000130074
0.000104519
9.63186e-05
0.000116513
0.000506039
9.37653e-05
0.000121102
7.96357e-05
0.000102508
0.000119547
0.000114267
0.000148485
0.000124655
0.000119535
8.77095e-05
8.48938e-05
8.38995e-05
0.00011299
0.000113602
0.000132198
8.12433e-05
9.06248e-05
0.00011411
0.000128254
0.000104899
0.000129784
0.000138538
0.000119958
9.75465e-05
9.96609e-05
8.41654e-05
0.000126679
8.35857e-05
0.000134324
8.6891e-05
0.000107032
0.000112004
9.67265e-05
0.00010274
0.000138807
8.88664e-05
0.000128808
0.000107542
0.000118433
0.000128041
0.000122712
0.000101115
9.82244e-05
8.09122e-05
0.000118295
8.60507e-05
0.000111467
0.000118777
0.000104516
0.000118214
0.000131651
0.000109682
0.000138529
0.00010599
0.000119954
8.60564e-05
9.76944e-05
0.000100901
0.000132762
0.000112607
0.000119861
0.00012126
0.000126789
0.000126226
0.000135281
0.000117333
0.000100048
0.000117076
0.000120924
0.000111936
0.000118975
9.61876e-05
0.000108401
9.73968e-05
8.7865e-05
0.000129118
0.00010587
0.000121932
0.000107547
0.000119616
0.000105332
0.000100867
9.6743e-05
0.000102294
0.00011317
9.50032e-05
0.000103018
0.000108723
0.000115964
9.66046e-05
0.00010694
7.21932e-05
0.000126326
0.000102781
8.511e-05
6.33778e-05
0.000108868
6.83509e-05
5.49746e-05
0.000114581
8.77944e-05
0.000110491
9.90641e-05
0.000114625
9.12612e-05
0.000122884
9.2615e-05
0.000102152
0.000133196
0.000135568
0.000128719
8.17391e-05
7.51713e-05
0.000132957
0.0001008
7.52605e-05
0.000115021
0.000125977
0.000105607
0.000123234
0.00011001
0.000117182
7.32057e-05
0.000152852
0.000132845
7.26351e-05
7.54069e-05
0.000109683
0.000103148
0.00011193
0.000119903
9.30101e-05
0.000114101
9.31357e-05
8.98387e-05
9.67947e-05
9.11329e-05
0.000110369
0.000115417
0.000110996
6.86161e-05
7.31816e-05
0.000140443
7.63283e-05
0.000118285
9.96429e-05
0.000119111
0.000101136
0.000116449
0.00011965
0.000114795
0.00012497
0.000106973
8.99091e-05
9.82225e-05
0.000113725
8.66443e-05
0.00012323
0.000124665
0.000118629
0.000142735
9.89126e-05
0.00010082
0.000118682
0.00012334
9.14953e-05
9.74512e-05
0.000120136
0.000109431
0.000114148
9.17161e-05
0.000102099
0.000121052
9.28517e-05
0.000132207
9.46832e-05
0.000118807
0.000136003
0.000100693
8.65824e-05
0.000117995
0.000105478
0.000123525
0.000126687
0.000131222
0.000145117
0.000120189
0.000155588
0.000122785
8.49679e-05
9.71387e-05
0.000138082
8.75684e-05
0.000100289
9.13917e-05
6.32966e-05
0.000136882
0.000102717
0.000109271
0.000109349
0.000139948
0.000110458
7.72437e-05
0.000123035
0.000121648
9.56156e-05
0.000118525
0.000118742
0.000104442
0.000112787
0.00011809
0.00012314
0.000106571
0.000136565
0.000111033
0.000103583
8.23627e-05
0.000104608
7.27422e-05
8.79918e-05
0.000119025
0.000109514
0.000111113
9.94741e-05
0.000113392
9.11061e-05
0.00011822
7.69485e-05
0.000114009
9.73714e-05
0.000110399
0.000110523
0.000127322
0.000141025
0.000101715
0.000125402
8.29906e-05
0.000124186
0.000100849
0.000104654
0.000124246
0.000107095
0.000119168
0.000127062
0.000118991
0.000109004
9.77105e-05
0.000101624
9.84299e-05
0.000115345
0.000115951
8.70704e-05
9.40218e-05
0.00010543
8.94898e-05
0.000112972
0.000107426
9.14903e-05
9.89284e-05
9.00559e-05
0.000111851
0.000119449
0.000110125
0.000100154
8.77089e-05
9.57547e-05
9.37782e-05
0.000136885
0.000111283
0.000119419
0.000114657
0.000141283
0.000100966
8.79891e-05
0.000106793
8.58094e-05
0.000134781
9.87139e-05
9.26996e-05
0.000128849
0.000105316
0.000135215
0.000114394
0.000114665
0.000111674
0.000123619
6.17026e-05
0.00011532
6.77504e-05
0.000114941
6.38431e-05
0.000120467
0.000115425
7.01763e-05
0.00010663
0.000114375
0.000142848
7.15529e-05
7.98951e-05
0.000105404
0.000111874
7.60316e-05
0.000106402
0.000122869
0.000111899
8.30805e-05
0.000124774
9.9993e-05
9.68829e-05
0.000105575
9.77948e-05
7.40562e-05
0.000107983
0.000100676
0.000122873
8.22269e-05
0.0001056
8.66728e-05
6.32844e-05
7.76424e-05
9.66421e-05
0.000114161
0.000102351
7.40571e-05
0.000108299
7.65163e-05
0.000104445
0.000106191
0.000111086
0.000104711
8.75449e-05
0.000103221
0.000106139
9.49076e-05
0.000106814
0.000116888
9.67253e-05
0.000140999
0.000110713
0.000106049
0.000104435
7.56071e-05
0.000125497
0.000114379
8.73057e-05
9.86947e-05
8.87401e-05
0.000125685
0.000112648
0.000116394
0.000147769
0.000129209
9.54465e-05
9.45804e-05
9.32048e-05
0.000117317
0.000132273
0.000102118
9.13591e-05
0.000124434
0.00010561
0.000127883
0.000119238
0.000127448
9.10541e-05
0.000139654
0.000111813
7.45461e-05
9.59323e-05
9.10004e-05
9.54122e-05
0.000122438
0.00014537
9.93316e-05
0.000105619
9.7413e-05
0.000121005
7.24969e-05
9.24784e-05
0.000103755
9.46178e-05
0.000104778
0.000114187
9.33678e-05
8.39647e-05
9.52279e-05
0.000127919
0.00010918
0.000115858
0.000120006
9.5121e-05
0.000116648
0.000105565
0.000110308
0.000103255
0.000107292
8.07945e-05
0.000118846
0.000100327
0.000101239
9.86171e-05
0.000128217
8.00516e-05
0.000101003
0.000123195
0.000116186
0.00010892
0.000106947
8.35822e-05
0.000112045
8.56608e-05
0.000112685
8.42953e-05
8.99451e-05
0.000308387
0.00011997
0.0001169
8.89054e-05
0.000101746
0.000100133
0.000103675
8.91256e-05
0.000106206
0.000117093
0.000116512
0.000104313
0.000126682
0.00010885
9.3304e-05
0.000124048
0.000114044
9.25827e-05
0.000101098
8.77577e-05
0.000103805
8.59207e-05
0.000118379
8.90507e-05
0.000104918
9.47028e-05
0.000107064
9.8639e-05
0.000114201
0.000148788
0.000108926
9.99478e-05
9.07885e-05
0.000101522
0.000111526
0.000111517
0.000124154
6.43207e-05
0.000115519
0.000115974
0.000102104
0.000100095
0.000114279
8.29971e-05
8.73149e-05
0.000105213
0.00011118
0.000110535
0.000124478
0.000127038
0.000111736
0.000109178
0.000134047
0.000105201
0.000128959
0.000124208
0.000121632
0.000123111
0.000132529
0.000160387
0.000120395
0.000115512
0.000127726
0.000106305
9.51027e-05
0.000114826
0.000115964
0.000126914
0.000113391
9.70718e-05
9.33465e-05
0.000102361
0.000105172
0.000103584
0.000110692
0.000105863
0.000120492
0.000111913
7.84483e-05
0.000114725
0.000110408
0.000101732
8.21364e-05
0.000127757
8.89522e-05
0.000105693
0.000111051
0.000132804
0.000139984
0.000104639
0.000103828
9.3753e-05
9.72889e-05
9.79585e-05
0.000134135
9.45344e-05
0.000152201
0.000128162
0.000135983
8.79994e-05
7.4795e-05
0.000107536
9.17853e-05
0.000104693
0.000112239
9.68255e-05
9.41732e-05
0.000117301
0.000119826
0.000123215
9.07689e-05
0.000120137
0.000108177
9.5223e-05
0.000109753
0.000125028
0.00012164
7.74821e-05
0.000141087
0.000120252
9.1777e-05
0.000104625
0.000111474
0.000114435
0.000160555
0.000145013
0.000112741
0.000105522
0.00013211
9.42415e-05
8.83683e-05
9.71155e-05
0.000124074
9.32851e-05
0.000127917
0.000107741
7.40357e-05
8.79836e-05
0.000130708
0.000151229
8.63659e-05
0.00011685
0.000130047
0.000106677
0.000104848
0.000110984
7.78759e-05
0.000103232
7.11713e-05
0.000122018
0.00011925
0.00010151
0.000120261
8.78924e-05
0.000111591
0.000104026
0.000107959
0.000119707
0.000102231
0.000121764
7.93278e-05
0.000115133
0.000131529
0.00012373
0.000121138
0.000122486
8.96549e-05
7.34758e-05
0.000118416
0.000136328
9.74675e-05
0.00010674
0.000120876
0.000116229
0.000122652
0.000134438
8.70541e-05
0.0001123
7.77174e-05
0.000120745
9.77289e-05
7.10849e-05
0.00012352
8.56227e-05
9.97636e-05
0.000133361
0.000100979
8.44624e-05
0.000101253
0.000105972
0.000106491
9.65403e-05
0.000129609
0.000106208
8.02929e-05
9.38121e-05
0.00011515
0.000123583
0.000113354
8.49326e-05
8.18765e-05
8.2867e-05
0.000107514
0.000109592
0.000110815
9.95181e-05
0.000135982
9.24708e-05
0.000103351
0.000100158
0.000118749
6.68576e-05
0.000100903
8.50643e-05
0.000133539
0.00010614
0.000128152
0.000105158
0.000120162
0.000112489
0.000106959
0.000109267
8.57414e-05
0.000144163
7.89652e-05
9.79929e-05
0.00010817
0.000100645
0.000117403
0.000100059
0.000120691
9.65406e-05
0.000115968
9.68942e-05
0.000107681
0.000110836
0.000104702
0.000101115
0.000120333
0.000111479
9.71152e-05
0.000104941
8.1619e-05
0.000118941
0.000109865
0.00011113
0.000130031
9.90045e-05
9.38066e-05
0.00012199
9.45863e-05
0.00012009
9.0423e-05
0.000143517
9.9033e-05
0.000105307
7.22406e-05
0.000106085
0.000153223
0.000141127
0.000131939
0.00011436
9.2929e-05
0.000112753
0.000142223
0.000132919
0.000132309
0.000122654
0.000110325
0.000118184
0.000107271
0.000100921
9.79989e-05
0.000117848
0.000125349
0.00012306
9.02517e-05
0.000120741
0.00010516
8.13166e-05
0.000105225
0.000115745
0.000106311
0.000110434
9.92427e-05
0.000124245
7.05795e-05
6.2145e-05
6.56455e-05
9.82525e-05
7.02384e-05
0.000126496
6.43293e-05
7.81739e-05
7.88702e-05
8.66925e-05
0.000107713
0.000102259
0.000131668
0.000120908
9.96327e-05
9.47953e-05
9.9815e-05
0.000110635
0.000105144
0.000129751
0.000130628
0.000135457
9.7818e-05
0.000128083
9.33169e-05
8.74836e-05
0.00011517
0.000117603
4.997e-05
9.54433e-05
0.00010209
0.000107524
0.00011802
0.000100908
0.0001143
0.000113098
0.000113925
9.32374e-05
0.000110888
0.000100465
0.000113235
0.000117966
9.11997e-05
0.000137523
0.000116139
0.00012594
0.000111022
0.000137155
0.000106207
9.85931e-05
0.000125261
0.000113751
8.46645e-05
0.000114366
0.000124117
0.000107975
0.000110295
0.000132593
8.87524e-05
0.000109421
0.000113121
0.000115506
0.000145021
9.92285e-05
0.000122656
0.000118977
0.000110787
0.000108608
0.000121918
8.82756e-05
9.58268e-05
0.000123014
0.00011202
0.00011094
0.000140016
9.52658e-05
0.000103456
0.00010145
0.000112069
0.000123706
0.000116374
0.000128729
0.000128327
0.000141785
0.000100685
0.000127418
0.000111788
0.000100539
0.000122347
8.79643e-05
7.95864e-05
9.78905e-05
0.000109466
0.00011842
0.000132965
0.000119412
0.000113729
0.000106224
8.86421e-05
9.59891e-05
0.000121804
0.000112728
0.000107951
9.85162e-05
0.000136551
0.000121598
0.000100235
0.000107556
0.000105494
0.000102028
0.000116062
9.95851e-05
0.00012605
9.80456e-05
0.000100381
0.000111955
0.000120715
0.000104837
9.40266e-05
0.000100921
0.000122791
0.000105053
9.16215e-05
0.000137932
0.00012762
0.00012109
0.000101717
8.35542e-05
0.000116122
0.000114248
9.00794e-05
0.000111557
8.21026e-05
0.000146084
0.00011538
0.000127119
0.00011746
5.54966e-05
0.000102497
9.0909e-05
8.1812e-05
0.000128542
8.72391e-05
7.285e-05
0.000113193
9.84793e-05
7.10566e-05
9.1869e-05
0.000117281
0.000119241
0.000109416
7.7575e-05
0.000107942
0.00013043
9.99323e-05
0.000111536
0.000103541
0.000115528
0.000101672
8.63005e-05
9.93413e-05
0.000127156
0.000119956
8.17433e-05
0.000100491
9.90544e-05
0.000132774
0.000101982
9.81396e-05
0.000288833
0.000101998
0.000119777
0.000823863
9.43536e-05
0.000102424
0.000105134
0.000101132
9.77864e-05
8.54203e-05
0.000104516
0.000111683
8.55544e-05
9.88307e-05
0.000128386
4.57566e-05
0.000105919
0.000130601
9.52857e-05
0.000138415
0.000118327
0.000105324
0.000103719
0.000100164
0.000108621
0.000108611
0.000101242
8.22548e-05
0.000117028
0.000105559
0.000133685
0.000122496
0.000122164
0.000117017
0.000106787
0.000102584
0.000106039
0.000100826
8.66238e-05
0.000109406
0.000105435
0.000106131
0.000107972
0.000123183
0.000124865
0.000109639
7.41799e-05
0.000116216
9.74745e-05
0.000111617
0.000109598
7.16017e-05
0.000114153
7.40384e-05
0.000103366
0.000102291
7.18169e-05
0.000106077
0.000105704
9.99338e-05
0.000111297
0.000126048
0.000121371
0.000132018
9.9183e-05
0.000108138
0.000114602
0.000142177
0.000133105
0.00011686
9.73742e-05
0.000101448
0.000120103
0.000126526
0.000129856
0.000122043
9.58189e-05
0.000124599
0.000107429
0.000105983
0.000131135
8.91687e-05
0.000112147
8.62336e-05
0.00010956
9.75821e-05
8.53305e-05
0.000114814
0.000101483
0.000112245
0.000117337
9.5277e-05
8.71338e-05
0.000106604
9.43871e-05
9.20013e-05
8.52671e-05
0.000123645
8.73294e-05
0.000103274
8.73826e-05
7.87982e-05
9.74519e-05
7.15737e-05
0.000105866
0.000112204
0.000104497
9.60537e-05
0.000141257
0.000116224
0.000123398
8.97138e-05
0.000111275
9.32225e-05
0.000124136
0.000139833
8.10392e-05
9.65626e-05
0.000113479
7.39818e-05
7.40123e-05
8.11492e-05
0.000116394
0.000109737
0.000113288
9.96031e-05
0.000112229
0.000101625
8.0617e-05
0.000116331
8.21835e-05
0.000110902
0.000101715
9.87053e-05
0.000132586
0.000107905
0.000103796
9.17116e-05
7.50287e-05
0.000129666
0.000108429
8.2763e-05
0.000124119
0.000108165
8.33557e-05
8.35252e-05
8.01483e-05
7.43996e-05
0.000106235
9.6407e-05
9.83419e-05
0.000134573
0.000114948
0.000126985
5.93151e-05
0.000102542
9.3859e-05
0.000126177
0.00010116
0.000111296
7.96386e-05
0.000113159
0.000108162
9.86025e-05
0.000141047
0.000113007
0.000107116
0.000107231
0.000120522
9.20249e-05
8.32439e-05
0.000130808
0.000113309
0.000107937
0.0001145
0.000118515
8.1847e-05
0.000103016
9.99475e-05
0.000115385
7.46269e-05
0.000105104
0.000112764
0.000119795
0.000122129
0.000111089
6.82286e-05
8.97803e-05
0.00012014
0.000121486
0.000134345
7.84026e-05
0.000121477
8.0158e-05
9.5654e-05
8.89542e-05
0.000109283
0.000102814
8.01936e-05
0.000117218
0.000101018
8.23121e-05
9.75957e-05
0.000105945
0.00010047
0.000129589
9.47131e-05
9.05556e-05
9.59416e-05
0.000112382
0.000110239
0.000100989
0.000104696
0.000107378
0.000111976
0.000101656
8.79486e-05
0.000101717
0.000122278
0.000114474
7.59978e-05
8.04353e-05
9.05987e-05
0.000107736
0.000102998
9.23961e-05
0.000121067
9.42632e-05
0.000122379
7.27367e-05
0.000118287
8.95162e-05
0.000114814
0.000117366
9.14645e-05
9.91385e-05
0.000137781
9.74273e-05
0.000141354
0.000107817
7.36902e-05
0.000118266
0.000126131
0.000111543
9.50378e-05
9.8593e-05
7.99191e-05
0.000121626
8.21269e-05
8.13432e-05
0.00010684
9.36864e-05
7.57096e-05
0.00010237
0.000104969
8.25977e-05
9.25419e-05
6.64272e-05
7.3442e-05
7.38479e-05
8.85028e-05
0.000104195
0.000111446
0.000111325
8.70696e-05
0.000108809
0.00010058
0.000107652
0.000138726
0.000129655
0.000116317
0.000111549
9.7625e-05
8.7284e-05
0.000113921
0.000105566
0.000132986
0.000127287
0.000105033
9.86286e-05
0.00010948
8.02363e-05
0.000106287
0.000107015
0.000113186
7.20408e-05
0.000102609
9.5777e-05
0.000111378
0.00011536
0.000102331
9.94446e-05
8.99488e-05
9.80939e-05
0.000106965
9.08655e-05
0.00010769
9.19925e-05
0.000130799
9.37683e-05
0.000104673
0.000119053
0.000120202
0.000109432
0.000107429
9.42438e-05
0.000109496
9.91337e-05
9.81312e-05
7.98786e-05
8.07523e-05
0.000108582
7.39859e-05
7.86415e-05
0.000111296
0.000125207
0.000125001
8.27286e-05
0.000136598
0.000109593
0.000122599
0.000104041
9.67755e-05
0.000115709
9.52569e-05
9.80199e-05
0.000123358
0.000106702
0.000136807
0.000109045
0.000112392
0.000102213
0.000122638
0.00010569
0.000101444
0.000120169
0.00010813
0.000105969
0.000107554
0.00010555
0.000107856
0.000107102
9.84019e-05
6.95773e-05
8.71423e-05
0.000126905
9.56056e-05
0.000114137
0.000125198
0.00010204
0.000104727
9.50669e-05
0.000118016
9.87061e-05
0.000111544
0.000117783
0.000110987
0.000108954
0.000106117
7.64852e-05
9.40679e-05
0.000109862
7.69239e-05
0.000111946
0.000107148
8.63125e-05
9.47422e-05
0.000122301
0.000120177
0.000147321
0.000104935
0.000138327
5.65818e-05
7.7359e-05
0.000114782
0.000108164
9.93226e-05
0.000109875
0.000122284
0.00010295
7.50906e-05
0.00011887
0.000138557
0.000119488
0.000134831
0.000105882
0.000113957
0.000110025
0.000120608
0.000116608
0.000114171
0.000119935
0.000115387
0.000116878
0.000104688
0.000114441
0.00010032
0.000111802
0.000117259
0.000106675
7.05776e-05
8.32293e-05
0.000101153
0.000115205
0.000101864
0.000111192
0.000106278
0.000130862
6.61972e-05
9.75525e-05
0.000115362
8.53185e-05
0.000100474
0.000142851
9.31862e-05
0.000107018
0.000138051
7.5959e-05
9.14082e-05
7.41592e-05
9.60761e-05
0.000127386
0.000123296
9.54033e-05
8.62705e-05
0.000105205
0.000141435
0.000121734
0.000113115
0.00012719
8.93642e-05
0.000112638
0.000145101
7.53399e-05
0.000113304
0.000102451
0.000140437
8.91175e-05
0.000104996
8.28055e-05
0.000138062
0.000120601
0.000112918
0.000139794
0.000102058
0.000103385
0.000112377
0.000122227
0.000107908
8.48532e-05
0.000115455
0.000101903
0.000102787
9.64091e-05
0.000111237
0.000107456
9.55844e-05
8.68967e-05
0.000114291
8.77872e-05
0.000120719
0.000134652
0.000132201
0.000109361
0.000111312
0.00010711
0.000131948
0.000108859
0.000109978
0.000108649
8.52024e-05
0.000103124
0.000112735
9.9825e-05
9.90818e-05
0.000110925
9.58633e-05
0.000100286
9.49647e-05
8.49564e-05
0.000102046
0.000144435
8.28601e-05
0.000101292
9.53789e-05
0.00010609
0.000123156
0.000123519
0.000116199
9.78013e-05
0.00010708
0.000100159
9.68064e-05
0.000102773
9.87812e-05
9.45863e-05
0.000109165
0.000116663
9.95656e-05
9.39572e-05
9.51409e-05
0.000103984
0.000119009
9.25971e-05
9.79172e-05
9.39053e-05
0.000100183
0.000103793
9.06182e-05
0.000102484
0.00011071
8.59551e-05
9.94092e-05
0.000122408
0.000121877
0.000100132
0.000111019
9.14478e-05
6.55347e-05
0.000132402
9.41756e-05
0.00010633
9.6081e-05
0.000106743
0.000136679
0.000111763
0.000128033
0.00013746
0.000108465
0.000102574
0.000111208
9.0695e-05
0.000102966
9.24637e-05
8.44906e-05
8.2482e-05
0.000118859
0.000103491
0.000106913
0.000122701
0.000120232
8.64667e-05
9.82329e-05
9.38121e-05
8.50871e-05
0.00010251
0.000116473
9.77715e-05
9.98411e-05
0.000103648
0.000108346
0.000110809
8.76179e-05
0.000101895
0.000119589
0.000100019
0.000107693
0.000110099
0.000110941
8.28823e-05
0.00010412
0.000135982
9.6385e-05
8.49117e-05
9.64138e-05
0.000105614
8.97817e-05
0.000110488
0.00010147
0.000113939
0.000100336
8.61672e-05
0.000101969
0.000109866
6.23646e-05
9.66866e-05
0.00010028
0.000100268
8.98293e-05
0.00012553
0.000105242
0.00011045
0.000107823
9.8233e-05
0.000132572
9.77385e-05
9.82433e-05
9.14864e-05
0.000111217
7.89243e-05
0.000133639
9.69659e-05
0.000113617
8.51002e-05
0.000111984
8.29728e-05
9.30865e-05
0.000122458
0.000106937
0.000108354
0.000112229
8.63085e-05
9.28781e-05
0.000136722
9.22497e-05
8.36896e-05
9.96034e-05
0.000113729
0.000110222
0.00010802
0.000112045
0.000110898
0.000108544
0.000101116
0.000114999
0.000108858
0.000130011
0.000104401
0.000109589
0.000111758
9.89118e-05
0.000114571
0.000110665
0.000116032
0.00010269
0.000117571
0.000107546
0.000109897
0.000121765
0.000100752
0.000102738
0.000110127
0.000154209
8.85632e-05
0.000115821
0.000127691
0.000138964
0.000111272
0.000126627
0.000122593
0.00011875
0.000104415
0.000118029
7.29614e-05
0.000138666
0.000127248
0.000118072
0.000102414
0.00011127
0.000129374
8.79096e-05
0.000120353
6.88882e-05
0.000116857
0.000122693
8.38573e-05
0.000104597
9.56507e-05
0.000140503
9.96454e-05
0.000100956
5.74383e-05
5.54973e-05
0.000118553
8.13968e-05
6.26612e-05
9.61434e-05
9.03976e-05
8.5301e-05
0.000107506
5.61999e-05
0.000106209
0.000131209
0.000130294
0.000119943
6.62744e-05
0.00010475
8.85226e-05
0.000121224
9.43738e-05
0.000150353
8.80312e-05
0.000103338
0.000121729
8.09493e-05
9.67005e-05
9.00781e-05
8.71662e-05
9.95831e-05
8.54792e-05
0.00011108
0.000134344
0.000136243
8.15631e-05
9.27732e-05
8.96647e-05
0.000116286
7.50067e-05
8.42836e-05
0.000105453
0.000109628
0.00011871
0.000127266
0.000103604
0.000146282
0.000107549
0.000116873
0.000119934
0.00010438
0.000106305
0.000120983
9.75366e-05
0.000103962
9.4981e-05
0.000104014
0.000109852
0.000134119
8.13177e-05
0.000119505
9.73343e-05
8.09542e-05
0.000103024
8.2062e-05
7.88683e-05
0.000107054
9.97602e-05
8.18921e-05
0.000102885
9.96333e-05
0.000110057
8.03692e-05
0.000117072
0.000112126
8.44887e-05
0.00012283
0.000114885
9.55809e-05
0.000124501
0.000113964
8.54874e-05
0.000122576
0.000100717
8.18199e-05
0.00010419
0.000119957
0.000100958
8.18306e-05
0.000123284
0.000114088
0.000112008
0.000118525
0.000111489
0.000111697
0.000125887
9.21748e-05
0.000133182
0.000115257
9.42031e-05
0.00012888
0.000136574
0.000115962
0.000119167
0.000104816
0.000120927
9.96455e-05
0.00011964
8.85849e-05
0.000105665
0.0001132
0.000113642
0.000113172
0.000114267
0.000123221
0.000115647
8.08296e-05
0.000121703
0.000117813
0.000152739
0.000109038
0.000101139
0.000122571
6.11829e-05
0.000100454
9.86256e-05
0.000113752
8.0732e-05
0.000114082
0.000132326
0.000101923
0.000111445
0.000123781
6.94736e-05
0.000105269
0.000111319
0.000113147
0.000105861
0.000141672
0.00013215
6.80645e-05
0.000147941
0.000127881
6.64396e-05
0.000103268
0.000122308
6.33487e-05
0.000111975
0.000101029
0.000126949
0.000113903
9.29323e-05
0.000103571
6.59041e-05
0.000118369
0.000113446
6.61777e-05
0.000134298
0.00011622
7.18463e-05
0.000120093
0.000114229
0.000139669
0.000109589
0.000111299
0.000112999
0.00010478
7.90891e-05
0.000119718
0.000112138
7.96616e-05
0.000117282
0.00011581
7.53199e-05
9.91053e-05
0.000103888
9.9736e-05
0.00011005
0.000108243
0.000106613
0.000135116
0.000102491
0.000118615
0.000112074
7.00326e-05
0.000134325
0.000112413
7.05467e-05
9.49845e-05
7.50309e-05
0.000134601
0.000102335
0.000133832
0.000110754
6.55332e-05
0.000126388
7.00217e-05
0.000121366
0.000105622
7.15306e-05
0.000118262
0.000112161
0.000117343
7.6448e-05
0.00012299
0.000111233
6.85376e-05
9.68367e-05
0.000105462
7.56333e-05
7.0932e-05
0.000104934
0.000135215
8.50859e-05
0.000106056
6.797e-05
0.000100588
0.000140228
0.000125871
8.08591e-05
0.000118009
8.92991e-05
7.21259e-05
0.000127309
0.000108905
0.000123066
7.04915e-05
0.000118584
0.000118096
0.000115375
0.000126806
0.000111527
0.000122747
6.75747e-05
0.000104418
0.000135877
7.60575e-05
7.36731e-05
0.000109548
0.000104482
0.000102103
0.000122576
0.000167193
6.35571e-05
9.98025e-05
9.13429e-05
0.000110985
7.34528e-05
6.72314e-05
7.15325e-05
0.000109173
7.60828e-05
0.000108134
7.20123e-05
7.43883e-05
0.000107312
0.000116275
0.000116321
0.000113114
7.79441e-05
0.000125677
0.000116249
0.0001227
0.000104596
0.000105729
0.000140328
0.000138069
0.000121254
0.000115786
7.97484e-05
0.000132521
0.000122127
0.000126454
0.000122083
6.81608e-05
6.71173e-05
9.86032e-05
0.000108047
0.00010006
0.000110592
9.28237e-05
0.000106872
9.81738e-05
8.146e-05
8.29936e-05
9.74233e-05
7.69663e-05
0.00010975
0.000102896
0.000110649
8.21336e-05
0.00010524
0.000113692
0.000101187
0.000114007
0.000116328
0.000106903
7.52716e-05
0.000121741
0.000111937
9.94549e-05
0.000135382
7.15554e-05
0.000108089
0.000116516
0.000112818
9.54985e-05
0.000113339
0.000104198
0.000102552
8.12623e-05
0.000103385
0.000125792
0.000119371
8.82875e-05
7.784e-05
0.000105087
7.22573e-05
9.00652e-05
0.000123306
0.000132151
9.56997e-05
0.000137279
0.000111942
0.00011225
0.000115718
0.000140982
0.000132291
9.30612e-05
7.39865e-05
0.000120437
9.44457e-05
7.2865e-05
0.000122754
0.000124705
0.000138853
9.88179e-05
0.000113971
0.000126414
0.000104035
0.000106895
0.000110191
7.65006e-05
0.000119453
9.5686e-05
8.63042e-05
0.000130875
0.000121186
0.000134962
7.65303e-05
0.000110479
0.000148565
0.000106892
7.96231e-05
9.06289e-05
9.23283e-05
0.000106592
7.67479e-05
8.99586e-05
9.90839e-05