/*--------------------------------*- C++ -*----------------------------------*\
| =========                 |                                                 |
| \\      /  F ield         | OpenFOAM: The Open Source CFD Toolbox           |
|  \\    /   O peration     | Version:  v2012                                 |
|   \\  /    A nd           | Website:  www.openfoam.com                      |
|    \\/     M anipulation  |                                                 |
\*---------------------------------------------------------------------------*/
FoamFile
{
    version     2.0;
    format      ascii;
    class       volScalarField;
    location    "1";
    object      CH4;
}
// * * * * * * * * * * * * * * * * * * * * * * * * * * * * * * * * * * * * * //

dimensions      [0 0 0 0 0 0 0];


internalField   nonuniform List<scalar> 
108993
(
0
0
1.22346e-73
2.77844e-79
7.63012e-104
0
0
2.15319e-138
4.7433e-28
0
0
1.11428e-93
7.80701e-87
3.48359e-160
1.49886e-160
2.89148e-137
0
0
4.00042e-81
0
5.09948e-143
1.28471e-45
0
0
1.2603e-87
0
8.31521e-16
0
0
0
1.93506e-09
0
1.11958e-17
0
0
1.57838e-122
3.2944e-14
4.2102e-99
4.06001e-288
5.98007e-300
0
0
0
0
0
0
1.62302e-16
0
0
0
4.20166e-23
0
0
1.47821e-18
9.91953e-192
2.00028e-134
9.37859e-22
2.69558e-90
2.37152e-66
0
8.89609e-85
7.64989e-78
0
0
9.29324e-76
0
1.85114e-84
4.50859e-82
0
0
0
0
2.99516e-96
1.65094e-86
0
3.38799e-07
0
0
8.9772e-32
6.44232e-85
0
5.29824e-165
0
2.03662e-85
5.27455e-187
1.49128e-147
0
2.26573e-102
0
0
0
9.89344e-08
1.37617e-91
3.52346e-110
0
1.64385e-135
9.33424e-10
0
1.28892e-09
4.46578e-14
8.17893e-88
0
1.90689e-138
0
0
7.89239e-90
0
0
1.4338e-55
3.08495e-320
4.43645e-243
3.0785e-87
0
1.59569e-260
5.87693e-50
0
1.16994e-103
0
0
6.21278e-10
0
1.24399e-53
0
4.10888e-74
0
0
0
3.19679e-101
1.24859e-50
3.03019e-51
4.47002e-126
0
0
0
0
3.12337e-50
8.28384e-52
8.45295e-66
0
2.59711e-155
1.23462e-68
6.74648e-07
2.24682e-175
1.42592e-51
2.54176e-49
0
1.24146e-78
0
4.09777e-72
0
0
0
0
0
4.41788e-53
0
0
1.54416e-36
4.89286e-22
0
0
1.61651e-25
0.000943062
0
1.04706e-135
0
1.42788e-112
0
0
1.43702e-58
0
9.27878e-130
0
1.46862e-72
0
0
1.06177e-251
0
1.15735e-51
0
0
8.64718e-45
3.96655e-36
1.95603e-76
0
4.4344e-113
4.96708e-46
0
0
0
0
1.08773e-32
0
5.13985e-267
5.98978e-56
0
0
2.18262e-90
0
0
1.62044e-110
4.54215e-263
5.78328e-146
0
0
0
0
0
7.33187e-53
4.70767e-265
0
1.36442e-93
4.73009e-249
0
3.81696e-272
1.17178e-86
0
4.23477e-31
0
8.32504e-21
0
3.57923e-280
4.23842e-111
1.03571e-266
0
0
4.3564e-37
1.13928e-34
8.44998e-214
0
5.16178e-271
0
0
0
1.39039e-25
4.31782e-22
6.96979e-27
8.29939e-62
1.46434e-286
0
9.89412e-12
0
1.73544e-132
0
0
1.63892e-131
0
0
6.72092e-28
5.56132e-46
0.0399234
0
3.01745e-32
1.18527e-60
1.70548e-39
0
6.07887e-40
1.82698e-88
4.91727e-16
0
5.73918e-25
0
1.17901e-137
0
6.39182e-41
0
1.14936e-22
0
0
0
4.97521e-118
0
0
2.75727e-266
0
0
3.44196e-08
0
4.22006e-84
0
0
3.04103e-313
2.25822e-310
0
5.2708e-38
0
8.8658e-85
0
0
0
0
6.92681e-16
0
4.70455e-16
0
0
5.25679e-10
7.77667e-21
1.80325e-205
2.37736e-128
0
0
0
1.14341e-129
1.2567e-35
0
0
0
0
0
0
0
4.99573e-157
0
0
0
0
0
0
6.21246e-33
0
0
0
0
0
0
0
0
0
1.3035e-85
0
2.66795e-322
0
1.54281e-32
0
2.6696e-132
3.94353e-37
0
1.20478e-43
1.48416e-36
2.82482e-30
0
0
3.16958e-90
0
0
3.77479e-43
0
0
0
1.2171e-22
0
0
0
0
2.67519e-78
0
0
1.94983e-95
0
0
0
3.19926e-41
1.397e-36
0
0
1.04805e-35
0
8.85979e-142
1.57771e-254
8.41993e-308
1.05035e-123
0
0
0
0
2.73516e-120
0
8.74136e-307
0
0
5.5697e-304
0
7.47037e-147
0
0
0
6.45145e-232
0
0
0
0
0
0
0
0
0
0
9.70199e-152
2.54369e-28
0
0
0
7.59412e-31
0
0
0
0
0
2.14978e-268
0
0
1.62336e-261
0
1.71998e-112
2.43816e-24
0
1.22392e-206
0
0
9.45752e-266
0
3.6997e-265
0
3.19919e-107
5.53791e-281
0
0
4.71681e-268
1.25828e-122
0
1.27297e-306
6.30904e-260
7.38472e-50
0
4.23824e-185
0
0
0
7.74017e-09
1.46707e-152
1.5962e-38
0
0
4.57124e-241
3.7235e-295
4.75968e-306
8.93495e-232
6.67085e-38
0
0
1.80594e-100
5.8313e-38
0
0
0
0
0
0
3.36011e-39
0
2.96979e-70
0
1.51362e-291
0
0
0
0
6.03059e-62
2.73091e-62
6.84784e-214
1.67615e-101
1.36522e-22
1.22352e-314
0
1.09218e-168
6.48021e-06
1.60123e-283
0
0
3.79188e-82
2.12293e-18
2.31702e-19
4.55099e-32
2.78652e-94
1.61639e-61
0
4.78855e-57
2.74849e-232
0
0
5.11014e-116
0
1.18665e-63
0
0
9.46718e-94
0
1.7753e-45
0
4.08939e-62
5.62146e-18
2.31966e-11
1.57782e-50
2.72899e-191
6.95369e-308
0
2.43869e-07
6.38659e-237
3.80199e-42
2.60786e-127
0
7.29367e-09
0
0
0
0
0
0
0
0
0
0
0
0
0
0
5.46484e-46
0
0
0
0
0
1.23858e-161
4.03139e-93
8.24937e-44
0
0
1.40898e-165
0
0
0
8.49182e-123
3.89564e-105
3.45462e-78
9.27415e-50
0
0
9.95494e-66
0
0
0
4.6375e-299
8.0155e-114
4.82023e-156
0
1.81602e-05
0
0
0
5.65598e-137
0.00171995
8.33904e-61
0
0
0
0
2.30836e-05
0
0
0
6.82255e-320
1.53565e-257
3.04459e-259
2.55802e-319
0
0
0
2.18092e-268
6.09028e-281
2.00794e-125
2.25038e-117
5.04531e-56
5.94997e-60
8.97552e-130
5.03929e-173
0
0
0
0
0
0
0
5.67476e-42
1.19954e-271
0
3.84282e-26
0
0
2.37794e-176
3.35601e-48
8.35663e-97
0
3.70417e-150
0
3.9531e-154
0
4.42435e-153
0
0
3.14263e-192
3.86275e-82
0
4.34497e-72
0
4.85606e-45
0
2.41485e-153
0
1.21276e-21
0
2.43839e-19
3.03969e-112
0
0
0
1.32752e-18
0
0
0
0
0
0
1.11327e-241
2.97294e-118
0
0
2.89279e-269
2.35276e-166
0
5.69657e-202
1.48107e-249
8.32502e-35
0
1.63482e-14
1.9954e-122
4.1609e-119
5.49452e-259
0
0
0
0
0
0
0
0
7.35889e-172
4.66569e-310
0
1.01517e-307
0
0
2.0149e-143
1.42766e-17
0
0
0
0
0
0
3.89773e-145
0
0
0
0
4.34329e-83
3.1062e-267
0
0
0
0
0
9.84494e-184
5.63153e-124
0
0
8.41258e-218
2.10145e-209
0
0
1.3243e-32
0
0
0
0
0
0
0
9.46272e-196
0
1.73419e-269
1.30639e-11
0
0
7.79628e-157
1.74162e-123
1.37014e-189
0
2.89727e-16
0
0
0
0
0
3.13388e-265
0
0
8.8955e-164
7.0435e-127
0
0
0
0
0
0
0
1.07648e-276
1.50287e-262
0
0
1.73937e-243
1.77646e-122
6.46696e-139
0
8.41832e-122
2.47929e-124
0
0
0
0
0
6.63591e-134
8.56341e-284
0
6.70607e-116
1.54061e-290
8.67116e-117
2.64549e-115
5.73887e-120
0
3.02901e-125
0
0
7.73103e-112
0
0
0
1.73972e-124
1.56567e-153
0
0
0
0
5.72289e-99
1.878e-209
0
0
0
0
1.2413e-39
1.31993e-96
2.73157e-258
0
0
0
0
5.89798e-99
0
0
9.55808e-153
1.76693e-47
3.53974e-168
5.54602e-101
0
0
0
0
0
0
0
1.71512e-22
0
6.83989e-18
0
1.14432e-300
4.91111e-134
5.17005e-314
0
0
1.68261e-114
0
3.84113e-146
0
0
5.66454e-139
7.88683e-11
0
9.40805e-176
2.51785e-69
0
6.0905e-82
0
0
5.83747e-209
3.5804e-61
0
0
6.60731e-118
1.61247e-213
0
0
0
4.68155e-156
0
1.80342e-259
3.77632e-284
0
3.59055e-195
0
0
0
0
3.60177e-172
0
0
0
2.14299e-88
0
0
0
0
0
0
4.48863e-105
0
2.27384e-197
1.24399e-116
0
0
9.00104e-92
0
5.21825e-105
0
3.80611e-98
1.32651e-298
0
0
0
0
0
0
0
1.88092e-296
0
0
0
1.84239e-107
3.56006e-165
0
5.2711e-159
0
0
7.4957e-156
0
9.01189e-44
0
0
2.14229e-266
0
0
3.62274e-302
0
1.52495e-289
0
0
0
0
2.40052e-196
0
2.62981e-286
1.77991e-67
1.33626e-31
0
1.6603e-157
0
0
3.83305e-109
2.63131e-162
0
4.77749e-88
2.30235e-186
3.50287e-300
0
0
0
0
0
0
0
0
1.68987e-137
8.08682e-167
0
0
1.26381e-199
0
2.14898e-197
1.41724e-163
0
0
0
3.94104e-126
0
0
1.00628e-49
0
0
0
0
0
0
0
0
0
0
1.61494e-146
1.33668e-44
4.16298e-304
5.74957e-138
1.62629e-255
0
0
0
0
9.39177e-256
0
0
0
0
0
0
1.85026e-141
0
0
0
1.14086e-180
0
0
2.09844e-201
1.55969e-140
0
2.23614e-293
0
0
1.08059e-165
8.36884e-157
0
0
0
0
5.74598e-161
0
0
2.88318e-11
0
3.74699e-163
0.00433525
0
9.33651e-30
3.80826e-165
0
1.01664e-63
2.51812e-95
0
0
5.60272e-93
0
0
1.33819e-101
2.0402e-103
0
0
1.58445e-318
3.21493e-67
0
0
0
0
0
0
0
1.83456e-99
1.997e-106
0
0
0
0
2.69592e-98
0
0
0
3.21407e-173
0
0
3.26679e-100
1.03093e-97
5.19101e-118
7.99962e-123
0
3.30247e-158
0
0
7.81424e-20
0
0
0
2.71364e-50
0
0
0
0
0
0
0
1.60174e-304
0
2.11205e-85
3.90813e-35
4.22464e-14
3.82455e-270
2.42469e-130
2.00508e-287
1.66467e-50
1.03411e-163
2.43329e-125
8.4917e-43
1.03754e-321
0
0
5.1871e-314
2.70016e-304
0
0
2.04669e-290
0
0
0
3.14099e-115
8.46489e-248
0
0
0
0
1.0509e-117
0
0
2.02604e-88
0
0
0
1.83769e-161
0
0
3.97448e-222
0
0
0
3.17412e-31
0
0
1.78862e-149
0
0
0
1.45581e-151
0
1.30898e-34
3.59709e-219
2.31065e-210
0
9.46655e-152
0
9.45276e-155
0
0
0
1.37044e-160
2.09392e-78
0
0
9.87909e-84
0
5.79308e-30
0
0
4.68686e-236
0
0
0
0
1.69699e-132
2.65518e-146
0
1.00019e-151
2.6605e-101
0
1.35e-28
0
0
2.22369e-115
0
0
4.64299e-35
4.04977e-96
4.65519e-154
1.34119e-86
0
0
0
0
0
0
0
1.43005e-115
4.64268e-207
6.19408e-81
0
6.60349e-70
0
0
0
6.15543e-314
0
0
0
0
0
2.43225e-260
0
3.55928e-89
3.52226e-23
0
0
2.48048e-23
0
3.59972e-05
0
0
2.14271e-36
0
0
0
0
0
0
0
0
6.46214e-313
0
3.48848e-155
0
0
0
0
0
0
0
0
3.45049e-251
4.34017e-269
1.90817e-09
1.82598e-172
0
3.23965e-183
0
0
2.41365e-132
0
1.26294e-99
0
0
6.37858e-86
6.92901e-306
1.00721e-268
6.999e-170
1.36852e-23
0
5.31568e-172
0
6.01225e-06
0
0
0
4.16939e-212
0
0
0
0
0
1.84353e-216
0
0
0
0
0
0
3.7132e-181
0
1.05661e-243
4.64264e-57
0
1.04e-167
0
1.579e-147
0
1.7809e-46
1.41648e-144
1.32878e-83
0
0
1.54874e-16
0
0
0
2.19339e-315
5.80989e-21
0
0
0
0
0
0
9.12654e-279
0
0
6.49446e-185
0
0
0
0
0
0
4.93171e-282
1.13519e-117
1.4038e-209
1.19385e-258
3.71032e-263
0
0
0
3.44994e-156
2.5702e-113
0
0
0
0
0
8.57999e-34
0
0
0
0
0
0
1.15957e-110
1.32933e-24
1.33006e-27
0
9.54065e-39
0
0
0
0
9.71842e-92
0
0
0
0
5.67255e-29
0
0
0
4.75847e-244
0
0
0
0
0
4.97478e-106
0
0
0
3.24681e-118
0
0
2.41681e-125
2.1795e-270
0
1.43082e-201
1.99925e-113
0
0
2.11665e-135
8.72691e-15
0
0
8.35511e-141
2.46938e-09
1.05947e-14
3.59683e-107
0
0
0
0
3.89239e-133
0
0
0
0
2.45776e-27
0
0
5.75114e-136
2.24597e-144
0
0
0
2.71045e-150
0
0
0
1.07279e-156
1.13955e-113
0
1.34713e-139
0
0
1.78552e-41
1.7261e-18
4.94066e-324
5.6321e-165
0
4.61515e-96
3.4714e-96
0
0
6.77706e-171
3.82763e-14
0
0
0
8.76861e-146
2.71355e-89
0
2.3151e-71
0
5.58118e-112
1.41809e-163
0
6.22341e-166
0
0
0
0
0
2.45361e-247
0
1.31834e-79
0
0
0
0
0
0
0
0
0
5.08855e-181
0
1.55517e-212
0
0
8.43777e-210
3.54406e-09
0
1.14349e-101
9.61701e-316
0
0
4.44013e-226
0
0
0
0
1.67592e-206
0
0
2.86818e-179
6.77008e-157
3.28184e-305
0
6.45369e-318
4.005e-228
0
0
0
0
0
0
0
0
9.79792e-203
0
0
2.5107e-178
0
2.21954e-122
1.14128e-221
0
4.78509e-132
0
0.112951
5.31147e-27
1.4766e-17
0.0585067
0
0
0
0
1.76212e-277
0
0
0
0
0
0
0
1.30892e-205
0
0
0
1.58736e-242
0
1.13362e-116
0
0
1.8969e-130
4.11566e-123
4.43586e-315
0
7.46039e-322
0
0
0
4.16741e-157
1.5325e-289
7.99966e-126
0
0
0
0
5.04654e-275
0
1.09463e-109
0
0
9.01826e-110
7.3962e-318
2.4558e-81
0
0
7.54136e-105
9.88131e-324
0
1.81322e-321
0
8.13075e-161
0
0
9.45127e-178
1.3336e-105
0
0
0
0
1.58892e-33
4.64977e-56
1.89887e-53
0
0
0
2.23422e-184
0
0
0
1.64622e-29
3.88985e-304
2.47846e-287
6.92221e-40
0
5.15329e-73
6.22116e-116
1.21288e-307
0
2.64632e-305
0
0
0
3.17384e-302
0
0
0
6.69328e-308
1.39201e-312
0
0
0
0
0
0
0
0
0
6.64652e-275
0
0
0
1.46734e-306
2.73614e-302
4.20451e-21
3.30574e-16
0
2.75112e-127
0
0
7.70271e-34
0
0
0
0
2.11078e-150
4.76024e-145
0
0
0
0
1.33279e-319
1.03009e-89
7.98514e-213
0
0
0
0
1.46426e-145
0
0
0
0
2.92606e-144
1.09291e-142
2.23985e-131
0
0
1.87627e-200
3.24241e-296
0
0
1.04682e-255
1.73413e-140
7.8586e-129
0
0
4.86523e-60
0
0
3.14971e-238
5.5258e-261
0
0
5.04728e-203
3.80615e-130
0
0
1.33846e-292
0
0
4.0326e-143
0
0
0
1.49031e-269
0
0
0
6.6529e-101
0
0
0
0
0
6.41698e-311
0
0
0
0
0
0
0
5.02727e-307
0
0
0
0
1.39359e-154
0
7.36584e-40
0
0
0
0
0
0
0
0
9.52808e-276
2.2966e-219
0
0
2.57565e-170
5.77937e-185
0
6.9824e-116
0
2.38484e-178
0
0
0
5.80694e-254
0
0
0
0
0
0
0
0
4.0665e-255
0
1.64389e-175
0
0
0
1.60044e-153
1.16609e-281
0
2.86226e-159
0
0
0
2.65839e-250
0
0
4.34618e-301
0
8.33805e-80
2.20478e-105
0
0
0
0
1.15114e-228
2.30461e-195
0
0
3.28629e-289
0
0
0
0
4.40595e-141
0
3.03412e-166
0
0
1.3029e-277
8.27655e-164
0
1.14771e-320
1.22528e-321
0
7.84529e-210
0
1.2029e-219
0
0
1.32753e-80
9.15426e-53
0
0
0
3.58505e-206
0
0
0
0
0
0
0
1.17518e-205
0
0
0
2.44079e-50
0
2.08508e-284
0
0
2.2189e-158
0
0
1.11622e-110
0
0
2.34718e-248
0
0
0
0
0
0
9.40087e-39
0
6.4078e-206
8.89296e-214
0
6.10092e-236
0
8.98779e-83
0
0
3.0128e-46
0
0
0
0
6.61321e-307
0
0
2.47033e-323
0
0
6.32351e-80
0
3.84207e-113
0
0
8.06713e-118
3.84329e-31
0
0
7.96567e-73
3.13419e-130
2.61542e-132
0
0
0
0
3.79936e-321
0
0
1.2427e-134
0
0
1.087e-79
0
0
0
0
1.19844e-57
0
0
0
0
0
0
0
0
0
0
1.34202e-190
0
0
0
1.87234e-234
0
1.54035e-188
0
0
0
0
0
0
0
0
0
0
0
0
0
3.8902e-268
1.24807e-295
1.69982e-86
0
0
0
7.78756e-133
0
0
6.86656e-104
0
4.37114e-135
0
0
0
2.91888e-122
0
1.8464e-123
1.49512e-39
1.28736e-06
0
0
0
0
2.34878e-299
1.41624e-08
0
0
0
8.30033e-152
0
0
0
0
1.57504e-62
4.3947e-303
1.96839e-300
0
2.03077e-59
0
0
0
8.36544e-212
7.8324e-264
3.72205e-13
0
0
0
3.82495e-312
5.44954e-130
0
8.41202e-127
1.40719e-23
0
0
0
0
0
0
0
1.40587e-249
8.07514e-124
0
0
0
0
1.18226e-150
9.18094e-132
0
4.06188e-232
0
4.61928e-127
0
3.64548e-176
0
1.36774e-161
1.05349e-169
3.84362e-16
0
9.76839e-26
0
1.2714e-24
1.15885e-132
0
0
0
0
0
2.9563e-127
1.16098e-124
0
0
0
0
0
0
1.94373e-315
0
0
0
2.27134e-197
0
1.70946e-50
0
8.84272e-45
5.46116e-314
0
0
0
0
1.20255e-251
2.39129e-272
0
0
0
0
0
6.34049e-209
0
2.33161e-312
0
2.39907e-195
4.17851e-42
1.00702e-174
0
0
0
2.11067e-219
8.12485e-282
0
0
0
0
0
0
0
0
0
0
1.03902e-62
2.39539e-298
0
9.28335e-319
0
0
1.40351e-289
1.99241e-254
1.4514e-142
0
8.07062e-306
1.8273e-62
0
0
0
0
0
0
0
0
3.01423e-251
1.47621e-289
0
0
0
0
4.66833e-249
0
0
1.00709e-224
5.58743e-229
0
0
1.37728e-245
0
2.95761e-295
1.57174e-145
0
7.95483e-225
1.39788e-120
0
0
0
0
0
0
0
0
0
0
0
0
0
0
0
0
0
0
0
0
0
2.70335e-70
0
3.30946e-122
2.75061e-267
0
0
5.73222e-68
0
0
3.96728e-257
1.48122e-176
0
1.08219e-266
0
0
5.66538e-64
0
0
1.89971e-285
4.81852e-286
4.24953e-204
0
5.16549e-296
0
0
0
0
7.29601e-296
3.89738e-103
0
0
3.10185e-289
0
6.33827e-307
0
1.11344e-278
3.17802e-184
0
0
5.71515e-155
4.5831e-185
6.59919e-294
0
0
0
1.76397e-205
2.86274e-189
7.71012e-249
0
0
0
0
0
0
0
0
0
0
0
0
9.12948e-212
0
0
0
0
0
0
0
2.19823e-198
2.32966e-232
0
0
0
0
0
0
0
0
1.53209e-153
2.5626e-188
0
9.00927e-215
0
0
0
0
2.18417e-142
0
7.3484e-180
0
3.11289e-142
4.67693e-103
0
0
1.57966e-44
1.16708e-105
0
5.21857e-266
0
0
0
0
0
0
4.31217e-103
0
0
0
3.16859e-115
0
0
0
1.31967e-316
0
2.73448e-66
0
0
2.27664e-115
0
0
1.35343e-116
1.8712e-107
5.89055e-181
6.57951e-164
2.329e-317
0
0
0
0
0
0
0
0
0
1.86009e-314
0
0
0
0
2.08782e-278
0
0
0
0
0
0
0
0
0
5.70115e-120
0
0
7.32394e-165
0
0
0
0
0
0
0
0
0
0
0
6.78209e-99
0
0
2.47033e-323
0
3.6211e-169
9.04459e-75
0
0
0
0
0
6.13727e-172
4.80669e-153
2.37456e-38
0
0
0
2.12981e-118
0
8.68685e-107
4.87446e-60
0
0
1.35464e-68
0
0
0
2.32797e-26
0
8.22569e-211
1.96264e-155
0
0
0
0
0
0
0
0
0
1.00267e-176
2.9852e-157
0
0
0
0
0
0
0
0
0
0
0
2.04256e-171
0
8.66892e-211
4.49501e-245
0
0
0
0
0
1.00516e-117
0
7.88807e-65
0
0
0
1.70448e-94
3.63888e-22
0
0
2.10734e-140
2.82364e-21
1.29534e-19
1.1336e-287
4.14915e-251
6.44752e-167
0
2.916e-255
6.42933e-167
1.37074e-281
0
0
0
0
0
0
0
0
3.44171e-66
8.18696e-65
7.29874e-296
0
4.12845e-293
0
0
0
0
0
0
0
0
0
5.74593e-317
0
0
0
1.63687e-314
0
0
0
2.42437e-154
0
4.44659e-323
0
6.71849e-132
0
0
0
0
0
2.15525e-17
0
0
0
0
1.02252e-241
0
0
0
2.68734e-239
0
0
7.48826e-307
1.08112e-119
0
0
0
1.32617e-276
0
1.21448e-237
0
4.89677e-274
8.91379e-196
0
0
1.42048e-14
0
0
7.80506e-276
0
0
7.4278e-09
1.03519e-10
3.89429e-147
0
0
0
7.6281e-208
0
0
0
0
0
9.06647e-120
0
0
0
0
1.75236e-198
0
0
0
0
0
2.12789e-284
0
0
0
0
0
0
0
0
0
0
2.64093e-301
0
2.49291e-204
2.64362e-142
0
0
1.16269e-139
0
0
1.95822e-168
0
3.01188e-192
0
0
0
0
0
0
0
0
0
0
7.44293e-256
0
1.92528e-234
0
1.3104e-146
0
0
0
0
2.40163e-162
0
0
0
7.1677e-46
8.29976e-224
0
0
0
0
2.94578e-91
0
0
0
0
5.94619e-174
4.41763e-44
0
0
1.54369e-39
0
1.50582e-261
0
7.7371e-158
2.17524e-149
2.56002e-262
0
0
0
3.28532e-42
0
0
5.67601e-207
5.01546e-84
6.09524e-162
5.56138e-115
4.30555e-39
0
1.47172e-161
6.05511e-275
2.31466e-37
2.47289e-260
2.10018e-286
0
0
0
0
0
3.51624e-115
9.26874e-259
4.06263e-62
0
0
5.19496e-150
0
0
0
6.44285e-114
1.24252e-89
2.5103e-121
1.75163e-235
8.67873e-220
0
1.56759e-219
0
0
0
0
1.43505e-47
0
0
0
0
0
0
1.14715e-98
2.15525e-121
0
0
0
0
0
0
0
0
0
0
0
0
0
1.23689e-309
0
2.16436e-234
0
0
0
0
5.30341e-302
0
0
1.88087e-117
0
0
0
0
1.12241e-227
0
0
0
0
0
0
1.50061e-294
6.19104e-241
0
4.11853e-297
5.43674e-245
0
0
0
0
0
0
0
1.13575e-294
0
0
0
0
0
5.54126e-290
0
0
0
0
0
0
0
1.05634e-309
0
0
2.53333e-298
0
0
0
0
9.62884e-298
0
0
0
0
3.36574e-243
5.18041e-98
0
0
0
8.49305e-117
0
0
0
3.12707e-144
0
5.20606e-167
1.3318e-178
0
0
0
0
0
0
2.04266e-316
0
0
2.51743e-107
0
0
0
0
0
4.3887e-48
0
0
1.66731e-167
0
0
0
0
1.87528e-302
4.90747e-300
1.01685e-229
0
0
0
0
0
0
0
0
0
0
7.30639e-180
0
1.81608e-170
0
0
3.27297e-260
0
0
0
0
0
0
0
9.40694e-236
1.03358e-215
0
1.12179e-204
2.32755e-285
1.07514e-218
0
0
0
0
0
1.85344e-319
4.57417e-148
0
3.22848e-293
1.0145e-283
0
0
0
0
1.43253e-130
0
5.01949e-114
0
0
0
2.37718e-120
6.84484e-202
0
5.51828e-235
8.38436e-70
0
0
8.46346e-275
6.07403e-110
0
1.25707e-259
0
0
0
0
0
0
8.59055e-41
0
1.86971e-38
0
0
2.526e-229
0
0
0
0
0
0
0
0
2.3801e-142
2.32632e-185
7.88176e-45
6.1951e-200
9.01336e-37
0
0
2.10742e-57
0
2.99886e-197
0
0
0
0
1.61919e-194
0
0
0
0
0
0
0
0
0
1.54675e-229
0
6.00616e-55
0
9.71311e-120
0
8.73986e-54
0
1.04445e-320
0
2.26685e-54
0
0
0
8.67616e-201
2.64551e-59
0
0
0
0
0
0
5.4817e-57
0
0
0
4.44638e-164
0
5.18125e-198
0
0
1.83731e-122
0
0
0
0
0
7.9388e-244
0
0
0
0
0
0
0
0
0
0
0
1.62556e-302
0
0
0
0
0
0
8.87913e-104
7.67594e-90
0
2.3771e-316
0
1.16025e-120
0
0
2.9701e-266
0
8.32204e-320
8.45064e-197
8.07388e-309
0
0
3.62442e-306
0
0
0
5.42751e-315
0
0
0
0
0
0
0
0
1.47028e-269
0
2.01956e-282
0
4.5454e-322
0
0
0
3.24749e-320
0
2.19955e-130
2.59849e-319
0
0
0
0
3.37279e-310
3.15497e-209
0
0
0
0
0
0
0
2.48599e-145
0
0
0
0
2.06312e-245
0
0
0
0
0
0
1.31478e-50
0
5.54624e-316
6.72642e-299
5.66728e-72
0
0
0
8.21767e-312
0
0
4.3e-77
0
0
0
0
0
0
2.06415e-317
0
0
0
0
0
0
5.33057e-138
0
4.08337e-271
0
3.34273e-48
0
0
0
1.90733e-141
3.39674e-42
0
0
3.54299e-41
0
4.44659e-323
0
3.38781e-57
5.76135e-211
0
0
0
0
0
0
0
1.03026e-32
5.6657e-09
0
0
0
0
0
0
0
0
9.67959e-154
0
3.34206e-216
0
0
0
0
0
0
0
0
0
1.00785e-136
0
1.78904e-67
0
2.32749e-121
0
0
2.95172e-271
0
4.36709e-57
0
4.1579e-153
0
7.1049e-148
0
4.90637e-139
0
5.56055e-49
0
0
0
0
5.97114e-46
3.18771e-100
0
0
0
1.4948e-139
0
0
3.73914e-134
0
0
0
4.86134e-292
0
0
4.96092e-175
5.1503e-71
0
0
0
0
0
0
0
0
0
1.20713e-93
0
0
2.00119e-263
1.01125e-156
3.44857e-49
3.43692e-81
0
0
0
2.09943e-279
7.8248e-305
0
1.16145e-303
0
0
0
1.54957e-97
0
2.69504e-99
0
0
0
0
0
2.91935e-281
0
0
0
0
0
0
0
1.53367e-212
0
0
0
0
0
0
0
8.97136e-223
0
0
0
0
0
0
0
0
0
0
0
0
0
0
0
0
1.09584e-234
0
0
0
0
0
0
0
0
0
0
0
1.60328e-308
1.96802e-305
1.20178e-162
0
1.35421e-41
3.63091e-278
0
6.78529e-140
0
0
0
3.14055e-35
5.7896e-38
2.711e-172
1.17701e-264
3.69914e-37
9.95756e-260
0
0
0
3.80585e-55
3.24161e-302
0
0
0
0
0
0
3.12418e-284
0
0
0
6.68942e-185
0
0
0
2.00393e-50
0
0
0
0
0
3.18367e-254
0
0
0
0
0
0
1.46043e-316
0
0
0
3.34438e-260
2.90241e-302
0
2.87664e-87
0
2.15799e-168
4.11375e-153
0
0
2.2474e-226
0
2.10637e-218
0
0
0
0
0
0
0
0
0
0
0
0
0
0
0
0
0
7.63834e-27
0
0
0
1.71974e-304
0
1.14203e-288
1.64627e-212
0
6.9434e-313
0
5.93778e-28
8.40317e-261
0
0
8.35393e-24
1.32799e-310
3.30991e-258
1.48413e-255
8.06616e-281
0
0
1.44857e-283
0
2.04413e-313
0
0
0
0
8.29248e-278
0
1.98346e-310
2.96439e-323
4.86444e-253
4.55683e-309
0
0
0
7.65427e-281
0
0
0
0
0
0
4.06573e-226
0
0
0
9.8099e-286
9.95464e-282
0
0
4.1416e-268
3.75868e-296
3.95028e-44
0
0
0
0
0
5.51857e-273
0
2.95878e-286
0
0
0
0
1.50619e-114
0
1.12094e-281
0
0
7.74837e-306
0
0
0
0
0
0
0
6.99156e-280
9.05914e-118
0
0
0
0
0
3.7901e-135
0
0
1.47679e-08
0
0
0
5.79351e-319
4.5193e-109
6.44497e-107
0
0
0
0
0
0
1.05282e-104
0
0
0
0
0
0
0
0
0
1.87716e-96
0
0
0
0
0
0
0
7.64353e-194
0
0
0
0
3.02352e-192
2.1605e-61
0
0
0
1.98084e-194
0
4.10074e-322
5.80599e-192
0
7.42637e-276
0
0
0
7.54555e-302
8.62055e-202
0
0
1.2551e-189
0
0
0
3.16018e-212
7.71734e-227
0
0
1.12873e-40
0
0
0
1.50405e-292
0
5.19724e-194
0
2.7174e-279
0
8.70273e-200
0
0
0
2.65239e-305
0
0
0
0
0
0
1.35173e-252
0
1.43971e-247
0
0
0
0
0
0
0
0
0
9.41247e-117
0
0
0
7.2145e-190
0
0
0
3.95253e-323
3.2607e-191
0
0
2.75262e-257
0
0
1.21122e-317
0
0
0
0
0
0
0
1.34408e-197
0
0
0
1.39892e-234
0
0
0
0
0
5.17818e-194
4.12051e-321
4.83812e-248
3.23076e-121
0
0
0
0
0
0
0
0
0
4.06651e-122
2.78669e-240
0
0
0
0
0
6.58995e-253
7.30016e-241
3.32642e-210
3.07241e-120
0
0
0
1.16737e-122
0
0
0
0
0
0
0
0
0
0
0
0
0
0
0
0
0
0
0
0
9.63312e-122
0
0
0
0
0
4.18372e-246
0
0
0
0
0
3.69103e-205
0
0
0
0
0
0
0
0
0
0
0
0
0
4.73281e-315
0
1.04699e-272
0
0
0
0
0
0
0
0
0
0
8.70693e-295
0
0
0
0
0
0
0
0
0
0
0
0
1.88452e-194
1.30114e-274
0
0
3.49993e-253
0
0
9.47325e-253
0
0
0
0
0
0
0
5.87303e-18
0
0
8.53451e-212
0
0
0
0
0
0
0
0
0
0
0
0
1.53461e-182
0
0
0
0
0
0
0
0
0
0
0
0
2.96611e-304
3.63336e-219
0
0
6.26253e-217
1.08447e-191
3.62776e-220
8.9334e-319
0
0
1.01368e-189
0
5.80827e-208
0
0
0
0
0
0
0
0
0
0
0
0
0
0
0
0
0
0
0
0
0
0
0
0
0
0
0
0
1.36523e-238
0
0
8.41618e-262
0
4.64171e-257
0
0
1.05736e-296
0
0
7.97239e-43
0
1.6838e-193
0
0
7.18665e-190
0
6.12271e-109
0
0
0
0
0
0
0
0
0
0
0
0
0
1.86099e-83
0
0
0
0
2.68993e-89
0
0
0
0
0
2.65346e-87
3.50211e-28
0
0
0
0
0
0
0
0
0
0
0
8.50866e-104
0
0
0
1.05837e-182
0
1.7288e-180
0
0
3.6816e-62
0
3.91421e-196
0
7.70267e-08
0
0
0
0
2.05139e-115
0
0
0
0
0
0
0
0
0
0
0
0
0
0
2.98034e-219
0
2.63209e-217
0
0
1.99958e-216
4.21379e-214
0
0
0
0
0
2.09168e-73
0
0
8.65511e-215
0
7.43448e-212
0
2.16154e-104
0
9.69268e-225
1.38841e-223
0
0
0
2.6431e-27
0
0
0
0
0
0
3.62401e-16
3.00328e-234
0
0
0
0
0
0
0
0
2.9e-174
6.17582e-322
0
0
0
0
0
0
0
0
0
0
0
0
6.9767e-261
0
0
0
0
2.86383e-157
0
1.52858e-159
0
0
2.79055e-294
0
1.4395e-155
0
0
0
0
0
2.0129e-153
0
0
0
0
2.80733e-203
0
0
0
0
0
0
0
0
0
0
1.3476e-190
0
0
8.17875e-237
0
0
0
0
0
0
0
0
9.95185e-85
0
0
0
0
0
0
0
0
0
0
0
0
5.11085e-177
1.8005e-182
0
0
0
0
0
0
0
0
0
0
0
8.9689e-108
0
1.3156e-304
8.38781e-310
0
0
0
0
0
0
0
7.8729e-286
0
3.75273e-201
0
2.6683e-198
0
0
0
0
1.11734e-259
0
3.84195e-240
0
0
0
3.82435e-74
0
3.24701e-74
0
0
0
3.94255e-300
0
0
4.38425e-72
0
2.23627e-305
8.64754e-308
0
0
0
8.14673e-316
0
0
0
0
0
0
0
0
0
6.28619e-291
5.6323e-108
0
0
0
0
0
0
0
0
0
0
0
0
0
0
0
0
0
0
0
0
0
0
3.34148e-244
9.11716e-239
7.10482e-223
1.41751e-223
2.62877e-185
0
0
0
0
0
0
0
0
0
0
0
0
6.505e-224
0
0
0
0
0
0
0
0
2.06329e-292
0
0
0
0
0
0
1.20554e-104
0
0
0
0
0
0
0
3.2066e-295
1.73785e-125
0
4.28855e-181
4.09272e-186
0
0
0
1.63212e-178
0
0
0
1.09345e-212
1.5519e-127
4.18257e-217
7.03763e-215
0
0
0
0
3.64791e-218
0
0
0
0
0
5.33794e-123
2.37399e-230
0
2.23349e-112
0
2.39937e-242
0
1.126e-180
5.22092e-129
0
0
0
0
6.72173e-284
0
0
0
0
4.39543e-300
0
1.73378e-178
0
0
0
0
0
0
0
0
0
0
2.0838e-301
4.40932e-312
0
0
0
0
6.98979e-287
4.89806e-182
0
4.19442e-191
0
2.3451e-235
1.12507e-235
1.18944e-188
0
3.04388e-310
0
0
5.36298e-196
0
9.76109e-229
7.71254e-72
0
0
8.09981e-57
1.68021e-32
0
2.23675e-314
0
4.06706e-86
6.95377e-189
2.04344e-186
0
1.93121e-121
1.23542e-290
0
2.64703e-181
2.00777e-54
0
8.42459e-284
2.17391e-05
0
1.31525e-97
1.44566e-106
0
8.46182e-108
1.12107e-291
0
0
3.39108e-112
0
0
0
2.25466e-148
9.05975e-137
0
0
0
0
0
0
0
1.53691e-158
7.6734e-159
6.63133e-187
0
0
0
0
1.88243e-175
0
9.23504e-132
0
2.15121e-128
0
6.00555e-171
0
9.14867e-310
0
0
0
2.46923e-195
0
0
8.77977e-165
0
0
0
4.09579e-121
0
0
1.36152e-79
0
6.15843e-49
8.18327e-102
0
0
6.31285e-152
0
0
0
0
0
4.32789e-53
0
0
0
8.18056e-92
0
0.000669729
0
0
5.02472e-152
9.39499e-43
0
1.39669e-25
1.32141e-41
0
2.68781e-132
1.36091e-246
0
0
0
0
0
0
1.20769e-146
9.11926e-20
0
0
0
6.78636e-145
0
0
0
5.63563e-148
0
0
0
0
0
0
1.48473e-240
0
0
0
1.19509e-129
0
0
0
0
1.54639e-157
0
0
1.01321e-130
8.77084e-162
3.17075e-119
0
0
5.56647e-122
0
0
3.73205e-102
2.13853e-104
0
0
0
0
3.52364e-98
0
7.78417e-146
3.12613e-166
0
1.34321e-193
1.64611e-167
2.27865e-156
0
0
1.6752e-96
3.81859e-156
0
1.86864e-150
0
0
1.41924e-212
4.08924e-261
3.79967e-192
2.90199e-246
5.37949e-72
0
2.73893e-213
9.70749e-157
0
0
0
0
6.95701e-242
0
0
6.63183e-49
1.73062e-47
2.22668e-20
2.54918e-255
0
0
0
3.38072e-243
0
0
1.88246e-33
0
0
0
3.99936e-179
4.50441e-179
0
0
2.06598e-162
0
0
1.5119e-93
0
3.32479e-158
1.04998e-172
0
0
3.49598e-251
0
3.22468e-301
0
8.91492e-299
1.85222e-68
0
1.92185e-48
0
6.13923e-99
0
3.0219e-95
0
0
1.64281e-302
5.74876e-104
1.87805e-288
2.43059e-222
0
1.57496e-80
5.21096e-300
0
0
0
0
1.33392e-81
3.70132e-128
0
0
0
0
0
0
0
0
0
8.23559e-155
0
0
0
0
0
4.22792e-96
0
1.53783e-21
1.33604e-133
0
0
0
0
3.94374e-92
0
0
2.9601e-17
0
5.64368e-189
0
0
0
5.58844e-35
3.29718e-83
0
0
4.84474e-12
3.57329e-84
0
0
1.56324e-119
0
0
6.52337e-308
1.04166e-78
2.26758e-75
4.94869e-281
2.12448e-322
0
3.79394e-41
0
0
2.13041e-320
0
0
0
0
0
0
5.79042e-64
0
0
0
1.96098e-92
0
0
0
0
0
3.50688e-30
0
1.51417e-44
6.05624e-125
8.34525e-66
0
0
0
0
0
1.36313e-128
2.09387e-44
0
0
1.19791e-118
4.33396e-303
2.22313e-119
0
0
0
0
0
0
0
6.99791e-189
1.65576e-78
0
0
1.26266e-121
0
0
0
2.88861e-172
2.00818e-143
7.90093e-101
1.2345e-72
0
0
0
0
0
1.7348e-159
6.73615e-86
0
5.17908e-51
0
1.82947e-311
0
0
0
0
0
0
0
0
0
1.76351e-98
1.42741e-39
0
1.20806e-38
0
0
0
4.12283e-233
0
1.24346e-120
3.09297e-119
0
0
0
3.36526e-138
1.02795e-180
2.84348e-280
3.34884e-181
0
4.33275e-247
6.4869e-113
2.16338e-279
5.75861e-267
3.29399e-87
0
0
0
0
7.58335e-40
0
0
0
6.70339e-08
4.73588e-262
3.3649e-93
0
0
0
3.93102e-47
1.06663e-53
1.46822e-46
0
0
1.77062e-256
0
0
0
0
0
2.75623e-150
3.7824e-266
0
0
1.42559e-109
0
0
0
0
0
0
0
0
0
6.06578e-120
4.01211e-279
0
0
0
0
0
0
0
0
3.90639e-134
5.32513e-208
3.46792e-104
2.46866e-87
0
0
0
6.50776e-33
0
0
1.58087e-179
1.25594e-115
3.23947e-196
3.39051e-129
0
0
9.57104e-66
0
1.03762e-13
1.56166e-118
0
2.02023e-25
0
8.84747e-206
1.28251e-23
0
0
0
0
0
2.31137e-61
0
0
0
1.65504e-205
0
2.53875e-110
0
0
0
0
2.28631e-138
0
1.87728e-63
0
0
0
0
0
0
1.74007e-87
0
0
2.96288e-84
0
0
0
1.1793e-31
6.25171e-69
0
1.77056e-287
0
0
3.6044e-267
0
0
0
0
0
4.2375e-192
0
0
0
0
0
1.56531e-176
5.84096e-253
6.67833e-83
0
0
0
0
7.93307e-107
0
0
1.96755e-97
1.05159e-144
0
0
0
0
0
2.59751e-130
0
5.27315e-119
1.06001e-73
0
0
0
1.66609e-125
0
3.65213e-87
0
0
0
0
0
0
0
1.30805e-102
0
0
0
0
1.1991e-133
0
0
5.17235e-252
1.20565e-77
0
8.26896e-58
1.53182e-264
0
0
0
0
6.4471e-26
3.45522e-30
0
0
0
1.94387e-56
0
0
3.97065e-302
6.63238e-115
4.46009e-245
0
4.37831e-34
0
6.59925e-296
1.46651e-40
0
0
9.23705e-289
0
3.82218e-316
0
0
0
0
4.82265e-127
0
1.77792e-20
0
0
0
5.31536e-316
1.29354e-39
0
5.62855e-84
0
0
5.92879e-323
2.97554e-53
0
0
0
2.90102e-13
0
7.0296e-104
3.27372e-31
0
0
6.94849e-108
0
5.23384e-23
0
0
0
1.43898e-303
6.84881e-114
8.3324e-305
0
0
4.98564e-197
1.53103e-102
2.23408e-305
3.56499e-22
4.96289e-302
2.66964e-255
0
0
0
0
0
0
0
0
0
2.27093e-89
0
0
0
0
3.57446e-16
6.10863e-36
8.47561e-47
0
0
0.0201303
6.28033e-263
0
0
0
5.66009e-126
0
1.58231e-89
3.19639e-75
0
2.74298e-81
0
0
0
0
4.6566e-266
0
1.15836e-20
3.03765e-77
0
0
1.69489e-31
2.98279e-29
0
2.18697e-29
0
0
7.61003e-64
0
5.13828e-322
0
0
7.51756e-137
0
0
4.19242e-208
0
0
0
0
7.44732e-53
1.41054e-158
1.41323e-161
0
0
5.96059e-44
0
7.10036e-51
6.57009e-98
0
1.27201e-201
5.4821e-126
0
0
7.76721e-105
0
0
0
0
8.78109e-127
0
0
8.07794e-117
0
0
1.5425e-31
7.22073e-38
0
0
0
3.37046e-83
4.56341e-165
0
4.98174e-82
2.39089e-41
9.49519e-51
2.32803e-55
0.0594534
5.87605e-18
0
1.67239e-35
0
0
0
0
2.15653e-303
5.37423e-289
7.66119e-20
0
1.88776e-12
0
0
1.28115e-317
0
0
3.94659e-270
1.11711e-267
3.46148e-258
0
0
3.21619e-268
0
0
0
1.78536e-265
2.08215e-97
0
3.5529e-56
0
7.46325e-33
4.18011e-31
0
0
6.87565e-28
2.62249e-27
0
1.95418e-52
0
2.5403e-22
1.04976e-23
0
0
7.44912e-90
1.22999e-77
1.33566e-41
0
1.41998e-31
6.42426e-30
2.24406e-89
1.06608e-29
1.3578e-10
4.41838e-34
0
6.53362e-229
0
0
1.20574e-150
0
0
2.34535e-44
3.25491e-24
1.7156e-38
0
1.02604e-259
0
0
2.62407e-150
0
0
0
0
3.75817e-23
0
1.09284e-70
6.38849e-45
0
1.07857e-61
0
0
0
0
0
1.35523e-80
2.51288e-05
1.07802e-06
1.84188e-320
0
0
0
0
0
0
0
0
0
0
0
0
3.89042e-28
7.60054e-111
0
0
3.99571e-19
1.42761e-131
7.7456e-315
7.44587e-74
0
0
0
4.54103e-47
1.91689e-24
7.00003e-13
3.45846e-323
0
2.72898e-193
0
4.08452e-16
1.96014e-13
7.02194e-29
1.92748e-14
0
0
0
2.23883e-39
7.35614e-66
0
1.67603e-215
3.00394e-225
0
0
0
0
0
0
7.70137e-269
8.69359e-43
0
6.02928e-34
0
0
6.72208e-246
5.23398e-120
2.15184e-16
6.35354e-55
5.01651e-17
2.46072e-227
0
1.16448e-190
0
6.81551e-225
0
4.33343e-18
0
0
1.63257e-18
0
1.79066e-22
1.97864e-131
0
0
0
4.13775e-21
0
2.06677e-305
7.22869e-20
0
0
0
0
0
1.27846e-262
3.35888e-174
0
0
6.40095e-248
0
0
3.34536e-222
2.4233e-16
1.92145e-125
1.9966e-130
0
8.27411e-220
0
0
0
4.97529e-260
0
0
0
1.88257e-219
1.45451e-105
4.47491e-151
0
5.60019e-128
0
0
2.90319e-115
0
5.67926e-123
0
0
0
0
0
1.2547e-173
0
4.50426e-86
4.71482e-178
0
5.13838e-206
4.75401e-268
0
0
4.97816e-123
5.34504e-210
1.89947e-301
8.5706e-37
0
9.09495e-288
0
0
7.53177e-111
0
0
0
0
0
3.22766e-301
3.11918e-240
5.54167e-80
2.83273e-74
1.58602e-181
0
7.83174e-174
1.25331e-297
8.24406e-216
0
0
7.73138e-167
0
0
5.42558e-60
5.10649e-244
1.79969e-68
0
0
0
1.66775e-213
0
0
1.66576e-236
3.25802e-217
0
5.46016e-216
0
4.28624e-234
0
5.96582e-137
0
0
1.84543e-151
0
2.04359e-238
0
0
0
0
0
0
0
7.16074e-289
3.42917e-238
0
0
0
0
0
1.85216e-165
8.83764e-28
1.90519e-304
2.1167e-146
8.95802e-73
0
0
1.31387e-262
0
0
0
3.40775e-270
8.74087e-146
2.34947e-277
9.01257e-146
0
0
4.15633e-125
1.16194e-115
3.96853e-221
2.39073e-149
0
0
0
0
6.28627e-273
1.89792e-286
0
0
0
0
0
0
0
0
0
0
0
5.10667e-108
0
0
0
0
0
0
0
1.41073e-293
9.30996e-284
4.285e-277
2.72178e-24
0
2.25472e-263
0
0
1.40448e-242
3.23999e-214
0
8.9802e-218
7.30139e-210
5.25252e-127
6.98549e-317
0
7.14582e-268
0
0
0
0
0
0
0
0
0
0
0
0
0
0
0
0
1.31673e-22
0
0
1.41981e-50
4.03662e-96
0
0
1.12095e-177
0
0
4.72988e-221
9.70217e-189
0
0
0
0
0
0
4.77923e-119
1.0173e-257
0
5.90752e-110
0
0
0
3.51909e-269
1.02898e-266
0
0
0
0
0
8.60863e-84
0
0
0
0
2.8015e-86
0
0
8.45583e-319
0
1.40302e-10
0
0
6.05454e-29
2.1344e-250
0
2.75611e-20
7.66209e-44
2.53905e-27
0
4.90057e-26
0
0
6.58318e-36
1.43819e-27
1.04182e-28
0
1.26487e-251
0
0
6.12314e-76
0
3.0687e-239
3.3292e-82
0
4.59044e-50
0
0
2.98051e-161