/*--------------------------------*- C++ -*----------------------------------*\
| =========                 |                                                 |
| \\      /  F ield         | OpenFOAM: The Open Source CFD Toolbox           |
|  \\    /   O peration     | Version:  v2012                                 |
|   \\  /    A nd           | Website:  www.openfoam.com                      |
|    \\/     M anipulation  |                                                 |
\*---------------------------------------------------------------------------*/
FoamFile
{
    version     2.0;
    format      ascii;
    class       volScalarField;
    location    "1";
    object      CO2;
}
// * * * * * * * * * * * * * * * * * * * * * * * * * * * * * * * * * * * * * //

dimensions      [0 0 0 0 0 0 0];


internalField   nonuniform List<scalar> 
108993
(
0
0
0
2.64743e-80
4.73434e-106
0
0
3.13211e-140
9.48865e-29
0
0
4.76314e-95
1.30786e-87
0
1.85133e-158
7.39769e-139
2.63002e-194
0
1.55059e-81
0
1.03579e-141
2.59599e-46
0
4.293e-141
1.68388e-88
0
2.33389e-16
0
0
0
6.25651e-10
0
2.44418e-18
1.0207e-153
0
5.14662e-119
7.64899e-15
4.60442e-101
5.30567e-285
7.72908e-297
0
0
0
0
0
0
3.33376e-17
0
0
0
9.30609e-24
0
0
3.28768e-19
0
4.86618e-135
2.90288e-22
5.5578e-93
5.44521e-67
0
0
5.25405e-79
2.40252e-115
0
2.28023e-76
0
1.77631e-85
1.70149e-84
0
0
0
0
2.61155e-97
8.06414e-88
0
1.64863e-07
0
1.90138e-174
8.59473e-33
8.36877e-86
0
0
0
2.58373e-86
0
8.86377e-148
0
2.56618e-104
0
0
0
5.86269e-08
1.66295e-92
9.36288e-111
0
2.67253e-135
4.37672e-10
0
6.36592e-10
1.45704e-14
1.01808e-88
0
5.38148e-137
0
1.67557e-90
9.64623e-91
0
0
1.10405e-56
1.83803e-317
1.99453e-242
3.77413e-88
0
0
1.08323e-50
0
0
0
0
2.91403e-10
0
2.69854e-54
0
8.93726e-75
0
7.28406e-143
0
3.25788e-102
2.7986e-51
6.58882e-52
6.0835e-124
0
0
4.48121e-222
0
7.18903e-51
1.78117e-52
0
0
0
2.13418e-70
1.63136e-07
0
3.0629e-52
5.5076e-50
2.78195e-95
1.57801e-79
0
8.9878e-73
2.40932e-271
1.06674e-268
0
0
6.42021e-269
2.7019e-53
0
0
3.72751e-37
1.10804e-22
0
2.98242e-266
3.10793e-26
0.000485723
0
0
0
1.54216e-113
0
0
2.21676e-59
0
2.5165e-130
0
3.60901e-73
0
0
1.42903e-256
0
0
0
0
1.69186e-45
7.70292e-37
4.26383e-77
0
0
8.85904e-47
0
0
8.62919e-80
0
2.62759e-33
1.91609e-92
3.30514e-263
1.35785e-56
0
0
4.23018e-91
0
1.22103e-75
1.23989e-113
0
1.45732e-145
0
0
0
0
0
1.94035e-53
0
0
0
6.20409e-254
0
3.18685e-269
0
0
3.39641e-32
0
2.20146e-21
0
8.38913e-276
4.39592e-112
0
0
0
8.08234e-38
2.33454e-35
0
0
1.23959e-266
0
0
0
2.96015e-26
9.2051e-23
2.14051e-27
1.5902e-62
1.5514e-275
0
2.43084e-12
0
3.10523e-133
0
0
1.87095e-133
0
0
1.36491e-29
3.1838e-47
0.00776174
0
5.88733e-33
5.40589e-61
4.677e-40
0
1.98773e-40
0
1.63763e-16
0
1.39896e-25
0
1.91036e-139
3.28175e-149
1.19999e-41
0
3.25245e-23
0
0
0
8.64232e-119
0
0
3.2062e-270
0
0
1.80546e-08
0
0
0
0
3.89865e-310
2.89712e-307
0
1.1005e-38
0
1.09392e-85
0
0
0
0
1.00393e-16
0
1.20407e-16
0
0
2.21743e-10
2.02534e-21
2.1054e-202
0
0
0
3.02901e-98
2.64654e-134
2.53543e-36
0
0
0
0
0
0
0
3.88306e-158
0
0
0
0
0
3.03356e-320
1.09745e-33
0
0
0
0
4.98154e-88
0
6.95022e-265
2.15349e-300
0
0
0
4.69115e-320
0
6.31158e-33
0
0
5.83194e-38
0
2.80465e-44
2.95061e-37
6.03227e-31
0
0
0
0
0
1.52634e-43
0
0
9.67548e-48
2.62667e-23
0
0
0
0
1.2894e-80
0
0
1.68202e-97
0
0
0
1.30364e-41
3.30122e-37
0
0
3.65308e-36
0
0
0
8.3068e-310
4.08421e-129
0
0
0
0
5.63214e-121
0
9.8123e-305
3.82401e-77
0
6.25295e-302
0
0
0
0
0
5.89787e-230
0
0
0
0
0
3.5059e-162
0
0
0
0
9.00117e-151
5.5282e-29
0
0
0
1.48386e-31
0
0
0
0
1.58836e-87
5.69912e-272
0
0
5.77848e-258
0
2.95154e-115
6.58581e-25
1.79536e-262
3.45132e-208
0
0
2.89864e-269
0
8.13122e-269
0
1.0286e-107
0
1.18129e-120
9.88131e-324
8.45428e-272
3.88169e-124
5.96452e-258
1.63239e-303
1.03956e-263
1.49518e-50
0
8.06776e-185
0
0
0
1.91403e-09
2.83097e-147
3.51747e-39
0
0
9.21643e-234
8.56433e-287
1.44609e-309
0
1.50567e-38
0
5.95471e-133
2.18263e-101
1.26242e-38
0
0
7.20621e-151
8.89259e-149
0
0
6.19069e-40
0
5.87894e-72
0
9.85786e-291
7.6901e-192
0
0
0
9.01054e-62
5.46566e-63
1.51709e-212
2.58737e-103
4.22103e-23
6.3485e-319
0
3.4128e-164
1.72755e-06
1.86802e-280
0
0
3.54675e-84
6.78078e-19
5.51091e-20
1.28393e-32
1.78207e-94
3.48432e-61
0
5.69386e-58
0
1.79386e-148
0
4.68858e-115
0
2.11736e-64
0
0
5.05617e-94
0
3.44174e-46
0
8.38185e-63
1.58179e-18
6.4747e-12
0
2.2574e-186
1.95376e-305
0
8.57179e-08
6.56516e-235
0
3.55959e-127
0
2.59601e-09
0
0
0
0
0
0
0
0
0
0
0
0
0
0
9.96807e-47
0
0
0
0
0
1.89401e-162
0
1.56913e-44
0
0
1.36412e-167
0
7.53674e-125
0
0
1.63979e-106
0
3.33357e-50
0
0
1.83056e-66
0
0
0
0
0
0
0
3.33792e-06
0
0
0
0
0.000748863
1.35485e-60
0
0
0
0
7.10738e-06
0
0
0
6.18708e-318
0
0
1.75831e-316
0
0
0
3.53031e-272
7.86026e-278
0
0
9.55526e-57
1.29385e-60
1.11732e-131
4.04109e-173
0
0
0
0
0
0
0
1.07223e-42
0
0
7.80842e-27
1.23834e-150
0
5.64355e-177
6.69218e-49
0
2.01346e-269
0
0
0
2.55852e-269
2.30682e-152
0
1.39844e-76
7.20419e-194
3.1539e-83
0
0
0
5.30046e-45
0
1.44062e-152
0
5.7963e-22
2.25444e-240
1.17173e-19
2.10835e-114
0
0
0
3.95577e-19
0
0
2.91943e-127
0
0
0
0
1.04963e-119
0
0
3.52807e-266
3.28687e-166
0
9.46452e-204
6.3504e-246
4.90469e-33
0
3.79849e-15
3.78963e-123
0
3.45553e-255
0
1.16122e-124
1.84001e-122
0
0
1.37053e-314
0
0
9.63159e-172
2.77494e-311
0
4.3793e-309
1.28457e-322
0
5.26143e-144
3.93671e-18
0
0
0
4.686e-138
0
0
8.93022e-149
0
0
0
6.10846e-312
4.20665e-84
1.05549e-263
0
0
0
0
8.01968e-253
0
1.91472e-125
0
7.14051e-134
4.03057e-212
5.87891e-208
0
0
2.83228e-33
0
0
5.80322e-204
0
0
0
0
1.13747e-191
0
1.14452e-270
1.06277e-10
0
0
0
0
1.50859e-188
0
6.48624e-17
0
0
0
0
0
7.90524e-261
1.92072e-102
0
2.19029e-164
2.82924e-130
0
0
1.02081e-120
0
0
0
0
0
0
0
0
0
5.21053e-123
6.75349e-142
0
0
9.35833e-128
1.72638e-292
0
0
0
1.07683e-101
0
2.2075e-279
0
2.43596e-116
3.17994e-288
3.51562e-117
1.9674e-115
2.6644e-120
0
1.02319e-122
0
0
3.40544e-112
0
9.50249e-287
0
3.01526e-123
7.42883e-155
0
0
0
0
3.80071e-99
1.95121e-207
0
0
0
0
2.69428e-40
4.12353e-97
6.61615e-254
0
0
1.4822e-323
0
1.84247e-99
1.40516e-263
0
1.30826e-154
1.83581e-48
1.84608e-167
2.64068e-101
0
0
0
1.43867e-287
0
0
1.04009e-210
7.09092e-23
0
1.3232e-18
0
0
9.74514e-135
0
0
0
0
3.12519e-287
1.81387e-145
0
4.46387e-99
2.52885e-138
2.76074e-11
0
0
5.56603e-70
0
3.75184e-82
0
0
1.55587e-206
5.3127e-61
0
0
1.19446e-117
1.81503e-215
0
0
0
1.60893e-156
0
0
0
0
4.8306e-193
0
0
0
0
3.29248e-174
0
0
0
1.79084e-88
0
0
0
2.36525e-139
0
0
1.38558e-105
0
0
0
0
0
3.02929e-92
0
1.67188e-104
1.66711e-265
9.85325e-99
2.42245e-302
0
0
0
0
0
0
0
3.88121e-294
0
0
0
0
1.19608e-161
1.88784e-132
9.5074e-156
0
0
3.24898e-152
0
1.61565e-44
0
0
5.46715e-257
0
0
0
0
8.14432e-287
1.10921e-225
0
2.90497e-191
0
0
0
0
4.17845e-68
3.46994e-32
0
4.66474e-158
0
0
0
0
0
6.54176e-89
8.66237e-189
2.40399e-294
0
3.27817e-189
0
1.67363e-131
0
0
0
0
3.67088e-139
1.05284e-164
0
0
9.70023e-197
3.4807e-95
1.65518e-194
1.15577e-156
0
0
0
5.31909e-124
0
0
3.04818e-50
0
0
0
0
0
0
0
0
0
0
2.94344e-148
2.54041e-45
5.92285e-302
3.3888e-138
1.78359e-253
0
0
0
0
6.42231e-253
0
0
0
0
0
0
3.06453e-143
0
0
0
1.94286e-183
0
0
0
1.99394e-142
0
7.3104e-291
0
1.8765e-246
3.3496e-166
7.9318e-157
1.78633e-179
1.14902e-160
0
0
6.25343e-161
0
0
1.3382e-11
0
4.78694e-163
0.0014393
0
2.304e-30
4.84351e-165
1.11074e-99
1.37904e-64
1.04924e-96
0
0
2.27731e-94
0
0
0
5.65333e-102
0
0
2.03808e-315
2.62882e-65
0
0
0
0
0
0
0
2.28193e-97
2.28035e-107
0
0
0
0
5.75705e-95
0
0
0
0
0
0
2.89987e-100
9.16048e-98
4.57643e-118
0
5.30033e-279
5.55094e-160
0
0
2.11619e-20
1.4822e-323
0
2.61152e-276
2.55475e-51
0
0
0
0
0
0
0
3.52833e-302
0
0
7.23667e-36
1.34491e-14
9.33722e-267
1.98703e-131
1.30154e-284
3.50887e-51
0
9.53666e-127
2.01355e-43
5.83561e-319
0
0
1.35102e-311
1.60791e-301
0
0
5.06053e-288
0
0
0
9.33909e-115
2.85992e-244
2.4223e-143
5.64204e-228
0
0
5.01064e-118
0
3.25123e-157
5.99377e-86
0
0
0
1.39341e-163
2.69988e-171
0
9.16286e-218
0
0
0
7.81024e-32
0
0
3.02628e-148
0
0
0
5.52894e-153
0
4.60592e-35
5.30924e-215
6.06839e-214
0
4.1114e-153
1.5531e-99
5.29153e-150
0
0
0
1.49202e-154
4.35643e-79
0
0
2.43156e-84
0
1.08321e-30
0
0
4.10421e-236
0
0
0
0
8.37684e-132
6.91841e-146
0
1.92097e-153
5.27511e-104
0
3.36473e-29
0
0
5.92498e-116
0
0
1.20419e-35
7.73152e-97
5.92301e-157
3.81229e-87
2.0947e-223
0
0
0
0
0
0
0
0
8.8832e-82
0
0
0
0
0
1.1696e-315
0
0
0
0
8.71159e-266
4.05037e-262
0
6.51381e-91
7.2485e-24
0
8.35465e-321
4.79215e-24
0
9.06197e-06
0
0
4.40275e-37
0
0
0
0
0
1.46799e-318
0
7.32647e-303
6.51314e-311
0
3.44563e-155
0
0
1.64281e-276
0
0
0
0
0
4.23627e-248
3.03201e-268
4.73871e-10
0
0
0
0
0
2.1809e-131
0
0
0
0
0
1.94356e-303
2.54183e-264
0
9.28252e-23
0
1.1904e-173
0
3.12075e-06
0
0
0
2.64e-208
1.58298e-179
0
0
4.81664e-200
0
1.08938e-216
0
0
0
0
0
0
0
0
2.30653e-240
8.8169e-58
0
2.79551e-168
0
1.01579e-148
1.61185e-263
4.79987e-48
1.9588e-146
3.36156e-84
0
0
4.67824e-17
0
0
0
2.13715e-314
1.23573e-21
0
0
0
0
0
0
4.31002e-276
0
0
0
0
0
0
0
0
0
0
6.60522e-117
3.8846e-203
1.13681e-255
7.14416e-267
0
0
0
9.21695e-155
2.40417e-112
0
0
0
0
0
2.32537e-34
0
0
0
0
0
1.95208e-249
3.03026e-113
2.65183e-25
3.80146e-27
0
1.67193e-39
0
0
4.70922e-187
0
0
0
7.94074e-128
0
0
1.39013e-29
1.27966e-279
9.63772e-235
0
0
0
0
0
0
2.99324e-166
1.54611e-107
0
0
0
2.56402e-119
3.3257e-125
0
0
3.61809e-272
3.44979e-123
1.65318e-196
6.27449e-116
0
4.22457e-219
5.18658e-138
2.52305e-15
0
0
4.36821e-142
8.06663e-10
2.55432e-15
0
0
0
1.17251e-315
0
9.36233e-136
0
0
0
0
5.47727e-28
0
0
1.53482e-135
1.5944e-144
0
0
0
0
0
0
0
0
3.37125e-114
2.16578e-146
0
0
2.33427e-270
2.93677e-42
6.44381e-19
0
2.74915e-166
0
0
0
0
0
7.60623e-172
1.384e-14
0
0
0
3.03838e-148
0
0
3.1512e-73
0
1.26296e-109
1.47804e-166
0
6.76103e-167
4.12096e-166
0
0
0
0
0
0
4.0124e-80
5.02715e-180
0
1.54339e-163
0
0
0
0
0
0
0
0
2.31911e-209
0
0
1.88404e-206
1.47397e-09
4.84101e-206
2.83209e-102
1.2337e-312
0
0
0
0
0
0
0
2.52017e-203
0
0
5.5763e-181
0
4.21294e-302
3.7572e-182
1.33169e-315
3.45787e-229
0
0
0
0
0
0
0
0
3.83694e-201
0
0
9.43016e-181
0
5.22215e-123
4.24144e-218
0
7.48822e-132
0
0.0211167
1.20932e-27
3.71825e-18
0.0272535
0
0
0
0
0
0
0
0
0
0
0
0
1.18744e-203
0
0
0
0
0
9.08194e-118
0
0
4.95106e-132
2.94338e-124
3.10893e-313
0
1.95438e-319
0
0
0
3.1693e-161
1.08037e-293
1.50179e-125
0
0
0
0
1.14754e-266
0
0
0
0
2.66887e-111
3.61349e-316
7.97597e-80
2.0693e-110
2.02741e-311
7.86829e-106
3.85371e-322
0
8.78251e-320
0
4.54123e-160
0
0
1.06496e-179
0
0
0
0
0
3.42369e-32
9.06827e-57
2.15455e-54
0
0
0
1.63443e-183
2.02574e-311
0
0
3.20887e-30
7.02536e-301
1.59585e-286
1.41613e-40
0
1.13623e-73
0
2.36987e-307
0
2.48479e-304
0
0
0
3.36059e-299
0
0
0
9.61164e-308
0
0
0
0
0
0
0
0
0
0
8.57839e-272
0
0
0
1.88231e-303
3.245e-301
1.03538e-21
1.46377e-16
0
0
0
0
1.71288e-34
0
0
1.50163e-140
0
1.1317e-148
4.82066e-144
0
0
0
0
0
1.73362e-90
0
0
0
4.35887e-98
0
2.25333e-148
0
0
0
9.02317e-303
0
1.10973e-141
4.4384e-132
0
0
2.76815e-201
1.1564e-291
0
0
0
1.76841e-139
5.65314e-130
0
2.539e-141
1.18539e-60
0
0
2.51235e-238
3.68183e-264
0
0
0
1.83053e-132
0
0
3.09141e-286
0
0
1.95475e-144
0
0
0
1.48223e-272
1.66665e-95
0
0
7.12996e-102
0
0
0
0
0
0
0
0
0
0
0
0
0
4.31115e-309
0
0
0
0
6.24396e-156
2.98064e-271
7.56726e-41
1.68966e-268
5.77911e-266
0
0
0
0
7.05876e-266
0
2.21879e-271
2.61937e-217
0
0
4.68032e-171
4.88853e-186
0
0
0
3.4697e-175
0
0
0
1.74955e-249
0
0
0
0
0
0
0
0
1.02891e-250
1.21979e-221
2.13529e-175
0
0
0
0
1.75095e-284
0
1.67464e-157
0
0
0
9.52624e-247
1.55135e-211
0
5.57654e-298
0
2.80112e-80
8.54962e-104
0
0
0
0
0
1.59197e-196
0
0
1.971e-289
0
0
0
0
1.48145e-143
0
9.40514e-162
0
0
0
2.54578e-159
0
2.97892e-318
4.94066e-324
0
0
0
1.21035e-215
0
0
0
1.86853e-53
0
0
0
2.29145e-202
0
0
0
1.95099e-231
0
0
0
4.52614e-201
0
0
0
4.49635e-51
0
0
0
0
6.47545e-157
0
0
1.48215e-111
6.01477e-241
0
2.88171e-245
0
0
0
1.3901e-249
0
0
2.40207e-39
0
8.51134e-215
0
0
1.53091e-232
0
2.92917e-83
0
1.44521e-75
6.23233e-47
0
0
0
0
0
0
0
4.32307e-321
0
0
1.76545e-81
5.35839e-138
0
0
0
0
7.4958e-32
0
1.18369e-125
2.84803e-73
2.01349e-128
1.20166e-130
0
0
0
0
2.03061e-321
0
0
5.81771e-133
0
0
0
0
0
0
0
3.29002e-58
0
0
0
0
0
0
0
0
0
0
1.39982e-188
0
0
0
1.01909e-234
0
0
0
0
0
0
0
0
0
0
0
0
0
0
0
7.07198e-272
1.60926e-292
1.86155e-87
0
0
0
0
0
0
1.45344e-104
0
2.57477e-134
0
0
0
0
0
0
2.74294e-40
5.2339e-07
0
0
0
0
5.93573e-295
4.75899e-09
0
0
0
0
0
4.51401e-153
1.50753e-145
0
3.83618e-64
2.17299e-302
1.03258e-299
0
1.30658e-60
0
0
0
2.25177e-204
9.54103e-261
1.22477e-13
0
1.12169e-278
0
3.72587e-311
5.12069e-132
0
6.53809e-130
2.54065e-24
0
0
0
0
0
0
0
0
1.40036e-124
0
0
0
0
3.41223e-149
0
0
6.81912e-233
0
2.88864e-129
0
0
0
3.11397e-162
1.67071e-171
1.18656e-16
0
2.74574e-26
0
3.19308e-25
0
0
0
0
0
2.56997e-207
2.55576e-129
1.06414e-126
0
0
2.53217e-249
0
0
0
2.49348e-312
6.05841e-289
0
8.16691e-144
1.10826e-198
0
5.58776e-51
0
1.65429e-45
7.00571e-311
0
0
0
0
9.11226e-250
6.02982e-268
0
0
0
0
0
0
0
2.99072e-309
0
0
0
1.34701e-174
0
0
0
4.48109e-223
0
0
0
0
1.3746e-121
0
0
0
0
0
0
2.31923e-63
3.07247e-295
0
5.55119e-316
0
0
2.16028e-286
0
3.59549e-138
0
1.05597e-302
6.98622e-63
1.75913e-69
0
0
0
0
0
0
0
0
9.50696e-289
0
0
0
0
3.5374e-247
0
0
4.58231e-221
2.76277e-225
0
0
1.75376e-243
0
1.68211e-298
1.33675e-141
0
3.8929e-221
0
0
0
1.41328e-113
0
0
0
0
0
0
0
0
0
0
0
0
0
0
4.89871e-250
0
0
0
5.94261e-71
0
0
2.47691e-264
0
0
1.26008e-68
3.81795e-203
0
3.8512e-252
8.41304e-177
0
2.62091e-262
0
0
1.2968e-64
6.59608e-97
4.02875e-198
2.48418e-282
7.73562e-285
1.99468e-206
0
3.40214e-297
0
0
0
0
3.1853e-293
6.69082e-102
0
0
3.70417e-288
0
2.9792e-305
0
9.0313e-275
2.7321e-182
0
0
0
5.15491e-182
7.84025e-293
0
0
0
2.75081e-201
3.78524e-188
0
0
0
0
0
0
0
0
0
0
0
0
1.04975e-153
8.94847e-211
0
6.63118e-228
0
0
3.38909e-104
0
0
0
6.41887e-227
0
0
0
4.71833e-321
0
0
0
0
5.0841e-152
3.27335e-191
0
3.44324e-216
1.08466e-262
0
0
0
1.25896e-142
4.69593e-260
0
0
6.24104e-141
2.31815e-103
0
0
0
0
0
1.29393e-254
0
0
0
0
0
0
0
0
0
0
0
0
0
0
3.45133e-314
0
3.78096e-69
0
0
4.80116e-118
1.96681e-122
0
0
4.72571e-110
5.44721e-179
1.33478e-164
2.98767e-314
7.20544e-218
0
0
0
0
0
0
0
0
1.75321e-312
0
0
0
0
8.75677e-277
0
0
0
0
0
0
0
0
0
7.84912e-120
0
0
1.67992e-165
0
0
0
0
0
0
0
0
0
0
0
4.56715e-99
1.1725e-154
0
0
1.926e-154
0
2.39721e-75
0
0
0
3.266e-253
0
3.92413e-171
1.58431e-154
1.68877e-38
0
0
0
0
4.09215e-111
4.71735e-107
1.00594e-60
0
0
2.32865e-69
0
0
0
4.75997e-27
0
3.09743e-210
4.07103e-155
0
0
0
0
0
0
0
0
0
2.51683e-175
0
0
0
1.48532e-122
0
0
0
0
0
0
0
0
1.2811e-171
1.15408e-78
1.51927e-211
2.81808e-236
0
0
0
0
2.831e-321
0
0
1.61653e-65
4.40458e-98
0
0
5.04671e-95
8.5316e-23
1.04842e-162
0
0
7.34725e-22
3.38494e-20
2.86092e-283
0
2.12751e-165
0
1.16452e-251
0
0
1.41311e-152
0
0
4.55298e-261
0
0
1.19818e-303
0
1.04126e-68
1.39272e-66
9.36383e-293
4.94066e-324
5.29648e-290
0
0
1.03203e-80
0
0
0
0
0
0
7.37008e-314
2.95787e-189
0
0
2.09955e-311
0
0
0
3.56847e-153
0
0
0
0
0
0
0
0
0
5.70563e-18
1.2105e-157
0
0
0
2.99244e-230
0
0
0
7.86507e-228
0
0
1.50654e-304
1.64074e-120
0
0
7.94862e-250
3.34824e-272
0
3.59035e-226
0
1.2363e-269
0
0
0
4.63459e-15
0
0
3.06593e-272
0
3.7799e-247
1.95818e-09
2.70528e-11
0
0
0
0
7.525e-207
0
0
0
0
0
1.88187e-120
0
0
4.26473e-207
0
1.38203e-202
0
0
0
0
0
1.83169e-280
1.02593e-247
0
0
2.45306e-226
0
0
0
1.83535e-286
0
0
1.43683e-299
0
0
6.27289e-145
0
1.46707e-263
1.4311e-136
0
0
2.65993e-170
0
0
0
2.74828e-271
0
0
0
0
1.68088e-220
0
0
0
0
0
1.96448e-232
0
0
2.49568e-111
0
0
2.46531e-266
1.40111e-163
0
0
0
7.65565e-47
4.01152e-220
6.46686e-281
2.60588e-237
0
0
7.15445e-92
0
0
1.407e-132
0
4.7992e-178
4.5366e-45
0
1.68612e-158
1.57869e-40
0
5.34725e-258
0
9.74164e-159
1.24069e-146
0
0
0
0
3.29796e-43
1.13476e-147
0
0
1.64722e-84
1.03701e-160
0
4.6845e-40
0
9.56027e-165
5.74558e-272
2.47403e-38
0
2.44236e-283
0
0
0
0
0
2.04432e-114
3.32125e-255
7.59454e-63
0
0
9.40048e-146
0
0
0
3.41665e-116
3.53478e-87
0
1.46223e-232
4.18584e-216
0
6.328e-213
0
0
0
0
3.21042e-48
0
0
0
0
0
0
3.28834e-101
4.02639e-120
0
0
0
3.40074e-249
0
0
0
0
0
0
5.97857e-183
0
0
1.05669e-307
0
2.85069e-226
0
0
0
0
6.9109e-299
0
0
9.53006e-115
0
0
0
0
1.55331e-224
0
0
0
8.84948e-309
1.60681e-318
0
0
0
0
1.65696e-294
1.92886e-241
0
0
0
0
0
0
1.62174e-252
4.99039e-292
0
0
0
0
0
4.2063e-287
0
0
0
0
0
8.65612e-316
0
2.17971e-307
0
0
5.22209e-297
0
0
0
0
7.4332e-299
0
0
0
3.33544e-190
1.38316e-230
6.22076e-99
1.23326e-126
0
0
1.71269e-117
0
0
0
7.04471e-145
0
9.02393e-169
0
0
0
0
0
0
0
5.34216e-314
0
0
0
0
0
0
0
0
1.07573e-48
0
1.08633e-214
4.46145e-169
0
0
0
0
2.40272e-299
6.29877e-297
0
0
0
0
0
0
0
0
0
0
0
4.71148e-178
0
0
0
0
1.08766e-256
0
0
0
3.38755e-287
1.5279e-154
6.628e-232
0
6.08077e-236
9.74851e-211
0
5.78414e-204
2.78192e-284
4.11878e-215
0
0
0
0
9.16505e-129
8.08314e-317
1.47476e-146
0
0
1.33267e-280
2.77985e-130
0
0
0
1.87108e-129
0
2.80121e-113
7.70691e-226
0
0
5.44081e-118
4.09578e-201
0
5.79058e-222
3.71779e-69
0
1.98797e-79
0
3.55406e-111
0
4.82667e-255
0
0
0
0
0
4.18886e-212
2.05418e-41
0
4.06311e-39
0
0
0
0
0
0
0
0
0
0
0
1.0483e-140
2.41697e-184
2.95788e-45
0
1.81876e-37
0
0
2.11915e-58
0
0
0
0
0
0
0
1.66235e-239
0
0
0
0
0
0
0
1.06136e-224
0
0
1.42445e-55
0
0
0
4.93703e-55
0
1.89839e-318
0
4.25357e-55
0
0
0
0
5.09158e-60
0
0
0
0
0
0
1.02905e-57
0
1.31243e-249
0
7.7321e-166
0
0
0
0
0
0
0
0
0
0
3.97687e-238
0
0
0
1.27505e-277
0
0
0
0
0
0
0
3.01394e-302
0
0
0
0
0
0
1.36251e-105
1.18231e-90
5.40417e-237
4.16771e-314
0
2.09655e-123
2.99128e-234
0
2.18617e-263
0
1.4646e-317
0
0
0
0
2.74358e-306
0
1.07464e-113
0
1.81927e-312
0
0
0
0
0
0
0
6.61357e-315
1.02131e-267
0
2.64524e-279
0
7.98361e-320
9.57274e-223
0
0
5.66442e-318
0
1.55394e-126
4.55583e-317
3.82465e-184
0
0
1.60553e-184
1.71291e-308
0
2.93423e-258
0
0
0
0
0
0
0
0
0
0
0
2.39105e-239
0
5.35925e-113
0
0
0
0
2.50608e-51
0
7.0922e-313
8.62907e-296
6.76178e-73
0
0
0
1.05476e-308
0
0
1.5716e-78
0
0
0
0
0
0
1.22883e-314
0
0
0
0
0
0
3.02223e-137
0
5.27113e-268
0
6.36117e-49
0
0
4.29837e-322
4.93791e-140
6.27064e-43
0
0
7.06431e-42
0
2.65461e-320
0
6.32522e-58
1.13316e-208
0
0
0
0
0
0
5.25539e-115
2.22997e-33
1.43496e-09
0
5.03338e-179
0
0
0
0
0
0
2.48742e-154
0
3.14493e-211
0
0
0
0
0
0
0
0
0
0
0
3.37062e-68
0
2.88778e-123
0
0
4.57216e-268
0
5.78449e-58
0
0
0
0
0
3.85914e-140
0
9.85476e-50
0
0
0
0
1.05836e-46
1.26739e-100
0
0
0
3.89814e-140
0
0
5.77665e-133
0
0
0
0
4.5894e-190
6.00481e-277
1.97193e-173
1.00052e-71
7.40733e-116
0
0
0
0
0
4.04701e-108
0
0
1.54172e-94
0
0
5.18004e-266
0
6.14691e-50
8.55191e-82
0
0
0
1.25525e-282
2.33704e-304
0
1.36512e-304
0
0
0
0
0
1.47334e-99
0
1.4769e-269
0
0
0
1.31312e-284
0
0
0
0
0
0
0
7.9244e-208
0
7.44673e-91
0
0
0
0
0
4.26701e-219
0
1.68413e-235
0
0
4.27322e-301
0
0
0
0
0
0
0
0
0
0
0
0
0
0
0
0
0
0
0
0
0
0
0
1.98267e-307
1.46746e-304
0
0
2.6309e-42
0
0
9.05552e-141
0
0
0
6.91404e-36
1.12604e-38
6.35638e-170
0
7.49551e-38
1.11258e-254
0
0
0
7.1314e-56
1.93791e-299
0
0
0
5.39307e-149
0
0
1.39503e-287
0
0
0
0
0
0
0
3.28396e-51
0
0
0
0
0
1.26612e-250
0
0
0
0
0
0
1.77642e-313
0
0
0
5.58305e-262
4.67437e-303
0
3.34665e-89
0
0
1.28049e-150
0
0
1.11098e-222
0
8.04548e-215
0
3.24352e-270
0
0
0
0
0
0
0
0
0
0
0
0
0
0
0
1.91482e-27
0
0
0
2.20584e-301
0
0
1.26612e-206
0
8.90721e-310
0
1.43258e-28
2.1196e-256
0
0
2.22287e-24
9.68653e-309
0
0
9.94649e-278
0
0
1.76458e-280
0
0
0
0
0
0
1.01021e-274
0
2.93236e-311
4.88631e-321
0
4.02723e-306
0
0
0
9.32455e-278
3.47031e-139
0
0
0
0
0
1.95858e-222
5.99314e-194
0
0
1.19506e-282
4.44501e-285
0
0
5.05086e-265
3.32244e-293
8.44481e-45
0
0
0
0
0
0
0
3.60441e-283
0
0
0
0
1.48246e-115
0
1.36586e-278
0
0
1.20292e-299
0
0
1.83951e-142
0
0
0
0
7.15688e-280
1.71881e-118
0
0
0
0
0
4.41903e-137
0
0
3.73143e-09
4.47152e-253
0
0
3.44149e-316
0
0
0
0
0
0
0
2.49272e-266
4.31262e-104
0
0
0
0
0
0
0
0
0
2.37425e-97
0
0
0
0
0
0
0
4.44602e-195
0
0
0
0
1.02454e-194
3.77735e-62
0
0
1.48867e-148
0
0
2.46519e-319
0
0
1.30034e-269
0
0
0
2.25746e-303
5.00904e-203
0
0
9.21315e-192
0
0
0
1.0925e-204
7.371e-227
0
0
1.87879e-41
0
0
9.63428e-322
3.571e-284
0
3.10627e-195
0
0
3.50112e-205
0
0
0
0
3.74595e-303
0
0
0
0
0
0
1.25071e-254
0
0
7.29213e-244
0
0
0
0
0
4.69846e-250
0
0
2.98988e-117
0
2.59447e-276
0
8.74261e-185
0
0
0
0
1.53887e-186
0
0
0
0
1.41268e-229
4.86388e-315
0
0
1.1521e-230
0
0
4.92062e-242
0
0
0
0
2.07252e-266
1.35138e-221
0
1.89969e-187
0
3.22621e-255
0
0
1.54148e-321
8.05542e-246
6.99058e-117
0
0
0
0
0
0
0
2.71839e-212
3.80265e-304
0
0
1.12646e-188
0
0
0
0
0
0
0
6.12599e-119
0
0
0
2.02027e-121
0
0
0
0
0
0
0
0
0
0
0
0
0
0
0
0
0
0
0
0
1.84476e-122
0
0
0
0
1.2311e-202
5.60866e-245
0
0
0
0
0
0
0
0
0
0
0
2.59011e-209
0
0
0
0
0
0
0
6.07139e-312
0
2.99463e-264
0
0
0
0
0
0
0
0
0
8.66843e-212
1.02015e-293
0
0
0
0
0
0
0
0
0
0
0
0
1.62911e-189
3.28017e-270
0
0
1.3902e-250
0
0
2.83423e-251
0
0
4.30225e-283
0
0
0
0
1.28317e-18
0
0
3.68304e-209
0
0
0
0
0
0
0
0
0
0
1.29573e-180
0
0
0
0
0
0
0
0
0
0
0
0
0
0
1.69347e-301
9.93737e-218
0
0
1.6817e-215
6.48922e-193
1.72498e-216
2.3898e-320
0
0
6.76315e-192
0
1.82367e-204
1.31047e-252
0
0
0
0
0
0
0
0
0
0
0
0
0
7.45167e-114
0
0
0
0
0
0
0
0
0
0
1.34068e-249
0
0
1.00776e-240
0
0
0
0
0
0
0
1.20998e-295
0
0
1.95455e-43
0
0
0
0
1.647e-191
0
3.18924e-110
0
8.49325e-100
0
0
0
0
0
0
0
0
0
0
0
1.53086e-84
0
0
0
0
3.35178e-90
0
0
0
0
0
3.27931e-88
8.1522e-29
0
0
0
0
0
0
0
0
0
0
0
1.02792e-104
0
0
0
9.61694e-180
0
3.55889e-179
4.90586e-177
0
0
0
1.19788e-194
0
2.921e-08
0
0
0
0
3.54073e-116
0
0
0
0
0
0
0
0
0
0
0
0
0
0
1.41231e-215
0
1.18853e-213
0
0
8.16272e-213
1.71994e-210
0
0
0
0
0
2.21994e-74
0
0
3.37154e-211
0
3.03277e-208
0
9.47398e-102
0
0
1.00744e-225
2.05726e-235
0
0
6.25431e-28
0
0
0
0
0
0
1.37107e-16
1.34953e-235
0
0
0
0
0
0
0
0
3.70058e-174
1.6107e-319
0
0
0
0
0
0
0
0
0
0
0
0
5.54685e-258
0
0
0
0
3.64247e-155
0
3.06814e-157
0
0
3.40171e-288
0
1.0149e-153
0
0
0
0
0
1.41983e-151
0
0
5.19976e-212
0
1.05887e-199
0
0
0
0
0
0
0
0
0
0
1.50667e-188
0
0
0
0
0
0
0
0
1.48793e-250
0
0
2.32881e-83
0
0
0
0
0
0
0
0
0
0
0
0
1.56951e-177
1.31759e-181
0
0
0
1.90222e-81
0
0
0
0
0
0
0
1.00348e-109
0
1.38327e-302
7.40502e-307
0
0
0
0
0
0
0
1.01704e-282
0
8.36217e-202
0
5.35561e-199
0
0
0
0
9.00221e-255
0
1.30707e-236
0
0
4.87879e-210
7.26968e-75
0
1.11482e-74
0
0
0
1.03142e-297
0
3.37178e-80
1.5002e-72
0
5.8503e-303
2.93013e-308
2.38323e-314
0
1.39993e-249
3.11082e-316
0
0
0
0
0
0
0
0
0
2.05469e-288
2.67287e-109
0
0
0
0
0
0
0
0
0
0
0
0
0
0
0
0
0
0
0
0
0
0
2.93359e-242
4.39856e-235
3.42389e-219
0
1.15253e-185
0
0
0
0
0
0
0
0
0
0
0
0
4.08178e-220
0
0
0
0
0
0
0
0
0
0
0
0
0
0
0
1.1776e-106
0
0
0
0
0
0
0
8.32215e-293
0
0
3.79641e-179
4.43754e-186
0
0
0
1.44736e-176
0
0
3.66684e-213
0
0
8.33391e-215
1.40008e-212
0
0
0
0
3.04955e-213
0
0
0
0
0
0
3.30487e-227
0
0
0
2.9716e-239
0
4.24637e-180
0
0
0
0
0
3.00148e-287
0
0
0
0
1.14854e-297
0
6.48646e-178
0
0
0
0
0
0
0
0
0
0
1.0611e-302
2.17237e-312
0
0
0
0
0
1.78086e-180
0
2.85012e-190
0
1.4336e-231
0
8.58362e-188
0
2.72363e-312
0
0
0
0
0
0
0
0
4.25467e-59
2.76419e-33
0
1.95431e-308
0
1.7153e-88
4.72068e-188
1.42379e-185
0
1.71192e-122
6.36932e-288
0
4.48535e-181
4.54817e-55
0
1.8521e-284
0
0
1.5721e-99
0
4.41346e-119
3.06225e-108
0
0
0
0
0
2.09087e-139
0
0
1.99041e-137
0
0
0
0
0
0
0
1.53393e-159
0
1.58277e-182
0
0
0
0
1.21222e-177
0
0
0
2.61253e-128
0
5.96172e-173
0
3.5832e-304
0
0
3.53788e-198
0
0
0
8.22741e-166
0
0
0
0
0
0
8.314e-81
0
1.11463e-49
1.15022e-102
0
3.96571e-120
1.17383e-152
0
0
0
0
0
1.73347e-53
0
0
0
6.55602e-94
0
0.000331435
0
0
0
1.91116e-43
0
3.19157e-26
3.15874e-42
0
4.42812e-133
4.08156e-242
0
2.15784e-174
0
0
0
0
1.02426e-148
2.06046e-20
0
0
0
6.93989e-144
0
0
0
8.27925e-148
0
0
0
0
0
0
4.96051e-241
0
0
8.73815e-52
5.01263e-130
0
0
6.41102e-238
1.85967e-220
0
1.6102e-178
0
2.58208e-131
3.03699e-162
7.51808e-120
0
0
8.23532e-122
0
0
2.73778e-102
9.91378e-106
0
0
0
0
5.3981e-99
3.13464e-155
9.52153e-149
1.17536e-164
0
0
0
1.44715e-159
0
0
3.25968e-97
1.07643e-159
0
4.91826e-153
0
0
3.97357e-210
0
0
1.92306e-249
7.20399e-72
0
7.25159e-215
3.55848e-159
0
0
9.94596e-162
0
2.38619e-238
0
0
1.06768e-49
3.4863e-48
4.6033e-21
0
3.06683e-166
0
2.04262e-156
1.10832e-239
3.78041e-204
0
3.79576e-34
0
0
0
0
1.09081e-178
1.0153e-161
0
2.03588e-163
0
0
0
0
5.77944e-158
7.81588e-173
1.02328e-242
1.78464e-145
0
0
4.54926e-299
0
1.25773e-296
1.13277e-69
5.15807e-173
5.90235e-49
4.57263e-123
6.68228e-100
0
0
0
0
2.31652e-300
7.91262e-105
1.87693e-278
4.02837e-218
0
1.03013e-80
7.30275e-298
0
0
4.02299e-150
0
0
0
0
0
0
1.49006e-163
0
0
0
0
0
6.3248e-155
0
0
1.31617e-197
1.02551e-121
2.55154e-148
7.68533e-97
0
5.43895e-22
7.16575e-133
4.9229e-109
0
0
0
2.12229e-93
0
0
7.54341e-18
0
1.15002e-188
0
0
0
1.31364e-35
1.74306e-84
0
0
1.07563e-12
6.19972e-85
0
0
9.16185e-120
0
0
3.89983e-305
1.58269e-79
0
6.61058e-284
6.42285e-323
3.69067e-321
7.06522e-42
0
0
7.63825e-321
0
0
4.09116e-173
0
0
0
0
0
0
0
1.4046e-92
0
0
0
0
0
5.95423e-31
0
3.62661e-45
0
2.72863e-67
0
0
1.78485e-113
0
0
4.72906e-128
5.03879e-45
0
0
6.68585e-119
2.59231e-300
2.78316e-120
2.29908e-152
0
0
0
0
0
0
1.45622e-187
3.62929e-80
0
0
4.32839e-123
0
0
0
4.2986e-173
0
4.26872e-101
1.20656e-72
0
0
0
3.81319e-163
1.16201e-286
0
2.50761e-87
0
8.07455e-52
0
0
0
0
0
0
1.00869e-111
0
0
0
0
8.16127e-100
2.76042e-40
0
2.82636e-39
0
0
0
0
3.23187e-143
4.22807e-122
9.48099e-120
5.91672e-240
0
1.68876e-231
4.07846e-140
2.54957e-177
7.16945e-276
8.80725e-186
4.87942e-115
1.49211e-243
0
9.78275e-281
4.55542e-264
0
0
0
0
0
1.2137e-40
6.78018e-237
0
0
1.49847e-08
3.74365e-259
1.68535e-93
0
0
0
0
1.82135e-54
2.86716e-47
0
0
1.68923e-253
0
5.92879e-323
0
0
0
4.6975e-145
2.39252e-263
0
0
0
0
0
6.57273e-270
0
0
0
9.72043e-118
0
0
1.67786e-120
4.80947e-282
0
0
0
0
0
0
0
0
0
9.03373e-204
4.07783e-103
2.32925e-88
0
0
0
1.76843e-33
0
0
8.69501e-178
7.04007e-114
7.57333e-198
4.80227e-130
0
0
1.72641e-66
0
2.50745e-14
0
0
4.41612e-26
0
1.5018e-201
2.36344e-24
0
0
0
2.17426e-195
1.18053e-63
2.32645e-62
0
0
0
0
0
4.7627e-110
0
0
0
0
0
8.50403e-179
0
0
0
0
0
0
0
8.05769e-88
0
0
0
0
0
0
1.84161e-32
0
0
1.80567e-283
1.9021e-185
0
9.14649e-263
0
0
0
0
0
7.94585e-190
0
0
0
2.80348e-62
0
5.31163e-176
0
1.32261e-83
0
0
0
0
2.64983e-108
3.28509e-98
0
0
1.39669e-145
0
0
0
0
0
0
0
3.78243e-119
4.35821e-74
8.00174e-122
6.63041e-105
0
1.96298e-126
0
4.56608e-87
0
0
0
0
5.05536e-96
0
0
7.31377e-101
0
0
0
0
0
0
0
9.88188e-250
0
0
0
3.89119e-260
0
2.87806e-133
0
0
1.55207e-26
6.76848e-31
0
0
0
4.0574e-57
0
0
2.22663e-297
2.19673e-118
0
7.73971e-286
1.11363e-34
0
3.70149e-291
2.76662e-41
0
0
5.62839e-284
0
5.23275e-317
0
0
0
0
7.46363e-128
0
4.58062e-21
0
0
0
7.31434e-317
1.64663e-40
1.41636e-123
2.17659e-85
0
0
1.06372e-320
0
0
0
0
9.81134e-14
4.94057e-314
0
7.32746e-32
0
0
5.64565e-109
0
1.1428e-23
0
0
0
2.82237e-297
8.50546e-115
0
0
0
1.0863e-198
1.79609e-103
1.42136e-308
9.82516e-23
6.48299e-299
6.36245e-251
0
0
0
0
0
0
3.16447e-279
2.00556e-119
0
1.75702e-91
0
0
0
3.04668e-233
8.88689e-17
8.71649e-37
1.91683e-47
0
0
0.00655345
4.09299e-260
0
0
0
3.16404e-126
0
1.85846e-90
3.71792e-76
2.21663e-81
4.20759e-82
0
0
0
0
3.0258e-263
0
2.6481e-21
4.91039e-78
0
0
0
5.29536e-30
0
4.89455e-30
0
0
1.45075e-64
0
1.27721e-319
0
0
1.0645e-136
0
0
1.0655e-211
0
0
0
1.65336e-80
1.24168e-53
6.08255e-156
1.8647e-163
0
0
1.16375e-44
0
1.31949e-51
3.72637e-95
2.14631e-205
6.82923e-204
0
0
0
7.29905e-106
0
0
0
0
0
0
1.63414e-289
2.81422e-118
7.11192e-287
0
3.57059e-32
2.06575e-38
5.60243e-303
0
2.49147e-300
5.19324e-84
6.32297e-166
0
6.2666e-83
5.07192e-42
1.7091e-51
5.31969e-56
0.0146311
1.32663e-18
0
3.89273e-36
0
0
0
0
5.28699e-300
1.10911e-286
2.11394e-20
0
4.89931e-13
0
0
5.09381e-315
0
0
2.67734e-260
7.27872e-258
4.21444e-255
0
3.28961e-316
2.28528e-258
0
9.32744e-314
0
1.16329e-255
1.55925e-98
0
1.19906e-56
0
1.6147e-33
8.6595e-32
0
0
1.46086e-28
5.20074e-28
0
3.25529e-53
0
6.65218e-23
2.1726e-24
0
0
0
7.65061e-78
3.2534e-42
0
3.07701e-32
1.67731e-30
0
2.12419e-30
5.64066e-11
8.02817e-35
0
3.23828e-226
0
0
2.20597e-153
0
0
5.1702e-45
8.43802e-25
6.47849e-39
8.36047e-156
1.15606e-256
0
0
0
1.06144e-318
0
0
1.17149e-273
8.62811e-24
0
1.67043e-73
7.22089e-46
0
2.50224e-63
0
0
1.03565e-150
4.94705e-278
4.15486e-288
1.73486e-81
1.69525e-05
3.56637e-07
4.44659e-323
0
0
0
0
0
0
0
0
4.07736e-271
0
0
0
6.58367e-29
2.28555e-111
0
0
8.28862e-20
1.54112e-133
7.29445e-313
3.7852e-74
3.29145e-132
0
0
7.02266e-49
3.55041e-25
2.3075e-13
0
8.96995e-189
1.64638e-187
0
1.12164e-16
4.37048e-14
1.24719e-29
5.95622e-15
0
0
5.34161e-88
6.8584e-40
5.32896e-67
0
4.51496e-214
1.5302e-221
0
0
0
8.40489e-114
0
0
0
1.66872e-43
0
1.44009e-34
0
0
8.70953e-242
6.71765e-120
4.46722e-17
3.31123e-56
1.12303e-17
0
0
1.66688e-190
0
0
0
9.26979e-19
0
4.08867e-231
3.75617e-19
2.06587e-129
2.27921e-23
0
0
0
5.3457e-154
5.79027e-22
0
2.53975e-304
1.577e-20
0
0
1.52455e-98
0
0
1.06988e-254
0
0
0
4.13787e-246
0
0
0
6.44453e-17
1.17325e-126
2.88353e-130
0
0
0
1.72511e-272
0
3.98562e-258
0
1.02914e-75
0
2.53475e-216
0
1.63679e-152
1.04491e-107
2.5295e-129
8.97331e-131
0
2.09643e-117
5.18309e-132
3.4585e-124
0
4.74681e-202
0
1.63524e-199
0
1.14791e-171
0
3.14032e-87
1.56271e-180
0
0
4.78801e-264
8.32908e-269
0
9.69116e-124
1.47974e-203
4.35572e-303
1.99158e-37
0
0
0
0
2.18204e-113
0
0
0
0
0
6.66072e-299
1.29059e-238
1.67833e-80
5.58149e-75
1.81666e-179
0
3.91937e-173
0
6.89395e-211
2.27882e-263
0
1.36447e-159
0
1.17769e-156
1.17647e-60
2.46009e-240
3.07739e-69
0
0
0
1.39599e-208
0
0
0
1.57907e-213
0
2.23769e-208
4.53608e-184
1.79545e-230
0
4.94633e-141
1.0263e-142
0
2.05962e-154
0
0
0
0
0
0
0
0
0
0
2.16843e-235
5.81602e-149
0
0
0
0
4.22929e-166
1.79828e-28
2.44444e-301
0
2.03029e-73
0
0
3.31274e-258
0
1.02866e-196
0
3.94579e-270
8.52924e-146
5.9297e-273
3.12157e-146
0
0
1.14042e-122
9.52291e-117
0
1.03337e-150
0
0
1.4789e-315
0
6.33894e-273
0
0
0
0
0
3.44917e-199
0
0
0
0
8.19561e-215
0
1.23137e-108
0
0
0
0
0
0
0
1.03631e-283
5.80513e-287
4.45676e-277
6.88106e-25
0
0
0
0
0
9.01187e-213
0
3.15596e-216
4.87043e-207
0
2.61691e-314
5.98318e-264
8.72633e-265
0
0
0
0
0
0
0
0
0
0
0
0
0
0
9.10069e-321
0
8.73027e-23
0
0
3.3377e-51
1.14733e-96
0
0
0
0
0
3.25089e-219
8.97354e-190
0
0
0
0
0
0