/*--------------------------------*- C++ -*----------------------------------*\
| =========                 |                                                 |
| \\      /  F ield         | OpenFOAM: The Open Source CFD Toolbox           |
|  \\    /   O peration     | Version:  v2012                                 |
|   \\  /    A nd           | Website:  www.openfoam.com                      |
|    \\/     M anipulation  |                                                 |
\*---------------------------------------------------------------------------*/
FoamFile
{
    version     2.0;
    format      ascii;
    class       volScalarField;
    location    "1";
    object      H2O;
}
// * * * * * * * * * * * * * * * * * * * * * * * * * * * * * * * * * * * * * //

dimensions      [0 0 0 0 0 0 0];


internalField   nonuniform List<scalar> 
108993
(
0
0
0
2.16742e-80
3.87596e-106
0
0
2.56423e-140
7.76828e-29
0
0
3.89954e-95
1.07073e-87
0
1.51567e-158
6.05642e-139
2.15317e-194
0
1.26945e-81
0
8.4799e-142
2.12531e-46
0
3.51464e-141
1.37858e-88
0
1.91074e-16
0
0
0
5.12215e-10
0
2.00103e-18
8.3564e-154
0
4.21349e-119
6.26216e-15
3.7696e-101
4.34371e-285
6.32773e-297
0
0
0
0
0
0
2.72932e-17
0
0
0
7.61881e-24
0
0
2.69159e-19
0
3.9839e-135
2.37656e-22
4.55012e-93
4.45794e-67
0
0
4.30145e-79
1.96692e-115
0
1.8668e-76
0
1.45425e-85
1.393e-84
0
0
0
0
2.13806e-97
6.60204e-88
0
1.34972e-07
0
1.55665e-174
7.03643e-33
6.85144e-86
0
0
0
2.11528e-86
0
7.25669e-148
0
2.10091e-104
0
0
0
4.79973e-08
1.36144e-92
7.66531e-111
0
2.18798e-135
3.58318e-10
0
5.21172e-10
1.19287e-14
8.3349e-89
0
4.40577e-137
0
1.37177e-90
7.89728e-91
0
0
9.03875e-57
1.50478e-317
1.6329e-242
3.08985e-88
0
0
8.86835e-51
0
0
0
0
2.38569e-10
0
2.20927e-54
0
7.31686e-75
0
5.9634e-143
0
2.6672e-102
2.29119e-51
5.39421e-52
4.9805e-124
0
0
3.66872e-222
0
5.8856e-51
1.45823e-52
0
0
0
1.74723e-70
1.33558e-07
0
2.50757e-52
4.50902e-50
2.27756e-95
1.2919e-79
0
7.35823e-73
1.97249e-271
8.73332e-269
0
0
5.25617e-269
2.21202e-53
0
0
3.05168e-37
9.07145e-23
0
2.44168e-266
2.54443e-26
0.000397657
0
0
0
1.26255e-113
0
0
1.81484e-59
0
2.06024e-130
0
2.95467e-73
0
0
1.16994e-256
0
0
0
0
1.38511e-45
6.30631e-37
3.49076e-77
0
0
7.25282e-47
0
0
7.06464e-80
0
2.15119e-33
1.56869e-92
2.70589e-263
1.11166e-56
0
0
3.46321e-91
0
9.99645e-76
1.01509e-113
0
1.19309e-145
0
0
0
0
0
1.58855e-53
0
0
0
5.07923e-254
0
2.60904e-269
0
0
2.78061e-32
0
1.80232e-21
0
6.86811e-276
3.5989e-112
0
0
0
6.61694e-38
1.91127e-35
0
0
1.01484e-266
0
0
0
2.42345e-26
7.53614e-23
1.75242e-27
1.30188e-62
1.27012e-275
0
1.9901e-12
0
2.54223e-133
0
0
1.53173e-133
0
0
1.11744e-29
2.60655e-47
0.00635447
0
4.81991e-33
4.42576e-61
3.82902e-40
0
1.62734e-40
0
1.34072e-16
0
1.14532e-25
0
1.564e-139
2.68674e-149
9.82421e-42
0
2.66275e-23
0
0
0
7.07539e-119
0
0
2.62489e-270
0
0
1.47811e-08
0
0
0
0
3.19179e-310
2.37184e-307
0
9.00973e-39
0
8.95586e-86
0
0
0
0
8.21908e-17
0
9.8576e-17
0
0
1.81539e-10
1.65813e-21
1.72367e-202
0
0
0
2.47983e-98
2.1667e-134
2.07574e-36
0
0
0
0
0
0
0
3.17903e-158
0
0
0
0
0
2.48367e-320
8.98472e-34
0
0
0
0
4.07834e-88
0
5.69008e-265
1.76304e-300
0
0
0
3.84037e-320
0
5.16724e-33
0
0
4.77456e-38
0
2.29614e-44
2.41564e-37
4.93856e-31
0
0
0
0
0
1.2496e-43
0
0
7.92123e-48
2.15043e-23
0
0
0
0
1.05562e-80
0
0
1.37705e-97
0
0
0
1.06728e-41
2.70268e-37
0
0
2.99075e-36
0
0
0
6.80071e-310
3.34371e-129
0
0
0
0
4.61098e-121
0
8.03324e-305
3.13068e-77
0
5.11924e-302
0
0
0
0
0
4.82853e-230
0
0
0
0
0
2.87025e-162
0
0
0
0
7.36918e-151
4.52589e-29
0
0
0
1.21482e-31
0
0
0
0
1.30038e-87
4.66582e-272
0
0
4.73079e-258
0
2.4164e-115
5.39175e-25
1.46984e-262
2.82557e-208
0
0
2.37309e-269
0
6.65696e-269
0
8.42102e-108
0
9.67114e-121
9.88131e-324
6.92144e-272
3.17791e-124
4.8831e-258
1.33642e-303
8.51077e-264
1.22409e-50
0
6.605e-185
0
0
0
1.567e-09
2.31769e-147
2.87972e-39
0
0
7.54541e-234
7.01154e-287
1.1839e-309
0
1.23268e-38
0
4.87507e-133
1.7869e-101
1.03353e-38
0
0
5.89966e-151
7.28028e-149
0
0
5.06827e-40
0
4.81304e-72
0
8.07054e-291
6.29581e-192
0
0
0
7.37685e-62
4.47469e-63
1.24202e-212
2.11826e-103
3.45572e-23
5.19752e-319
0
2.79403e-164
1.41433e-06
1.52933e-280
0
0
2.90369e-84
5.55136e-19
4.51174e-20
1.05114e-32
1.45897e-94
2.85258e-61
0
4.66151e-58
0
1.46861e-148
0
3.8385e-115
0
1.73346e-64
0
0
4.13944e-94
0
2.81772e-46
0
6.86215e-63
1.29499e-18
5.30078e-12
0
1.84811e-186
1.59952e-305
0
7.01765e-08
5.37484e-235
0
2.91421e-127
0
2.12533e-09
0
0
0
0
0
0
0
0
0
0
0
0
0
0
8.16077e-47
0
0
0
0
0
1.55061e-162
0
1.28463e-44
0
0
1.1168e-167
0
6.17026e-125
0
0
1.34248e-106
0
2.72917e-50
0
0
1.49866e-66
0
0
0
0
0
0
0
2.73273e-06
0
0
0
0
0.000613087
1.1092e-60
0
0
0
0
5.81875e-06
0
0
0
5.0653e-318
0
0
1.43951e-316
0
0
0
2.89024e-272
6.43513e-278
0
0
7.82281e-57
1.05926e-60
9.1474e-132
3.3084e-173
0
0
0
0
0
0
0
8.77827e-43
0
0
6.39269e-27
1.01382e-150
0
4.62032e-177
5.47883e-49
0
1.6484e-269
0
0
0
2.09464e-269
1.88858e-152
0
1.14489e-76
5.898e-194
2.58207e-83
0
0
0
4.33944e-45
0
1.17942e-152
0
4.74538e-22
1.84569e-240
9.59289e-20
1.72609e-114
0
0
0
3.23855e-19
0
0
2.39011e-127
0
0
0
0
8.5932e-120
0
0
2.8884e-266
2.69093e-166
0
7.74852e-204
5.19901e-246
4.01542e-33
0
3.10979e-15
3.10254e-123
0
2.82902e-255
0
9.5068e-125
1.5064e-122
0
0
1.12204e-314
0
0
7.8853e-172
2.27182e-311
0
3.58529e-309
9.88131e-323
0
4.30749e-144
3.22295e-18
0
0
0
3.83639e-138
0
0
7.3111e-149
0
0
0
5.00094e-312
3.44394e-84
8.64121e-264
0
0
0
0
6.56564e-253
0
1.56757e-125
0
5.84587e-134
3.29979e-212
4.81301e-208
0
0
2.31877e-33
0
0
4.75104e-204
0
0
0
0
9.31234e-192
0
9.37007e-271
8.70077e-11
0
0
0
0
1.23507e-188
0
5.31023e-17
0
0
0
0
0
6.47195e-261
1.57248e-102
0
1.79317e-164
2.31627e-130
0
0
8.35728e-121
0
0
0
0
0
0
0
0
0
4.26581e-123
5.52902e-142
0
0
7.66158e-128
1.41337e-292
0
0
0
8.81594e-102
0
1.80726e-279
0
1.9943e-116
2.60339e-288
2.8782e-117
1.61069e-115
2.18132e-120
0
8.3768e-123
0
0
2.788e-112
0
7.77961e-287
0
2.46857e-123
6.08191e-155
0
0
0
0
3.11161e-99
1.59744e-207
0
0
0
0
2.20579e-40
3.3759e-97
5.41658e-254
0
0
1.4822e-323
0
1.50841e-99
1.15039e-263
0
1.07106e-154
1.50296e-48
1.51137e-167
2.1619e-101
0
0
0
1.17783e-287
0
0
8.51509e-211
5.80527e-23
0
1.08329e-18
0
0
7.97826e-135
0
0
0
0
2.55857e-287
1.485e-145
0
3.65453e-99
2.07035e-138
2.26019e-11
0
0
4.55686e-70
0
3.0716e-82
0
0
1.27378e-206
4.34946e-61
0
0
9.77896e-118
1.48595e-215
0
0
0
1.31722e-156
0
0
0
0
3.95477e-193
0
0
0
0
2.69552e-174
0
0
0
1.46615e-88
0
0
0
1.93641e-139
0
0
1.13436e-105
0
0
0
0
0
2.48006e-92
0
1.36875e-104
1.36484e-265
8.06677e-99
1.98324e-302
0
0
0
0
0
0
0
3.17752e-294
0
0
0
0
9.79223e-162
1.54556e-132
7.78362e-156
0
0
2.65991e-152
0
1.32272e-44
0
0
4.47591e-257
0
0
0
0
6.66768e-287
9.081e-226
0
2.37827e-191
0
0
0
0
3.42086e-68
2.84081e-32
0
3.81898e-158
0
0
0
0
0
5.35568e-89
7.09181e-189
1.96813e-294
0
2.68381e-189
0
1.37019e-131
0
0
0
0
3.00531e-139
8.61952e-165
0
0
7.9415e-197
2.84962e-95
1.35508e-194
9.46218e-157
0
0
0
4.35469e-124
0
0
2.49552e-50
0
0
0
0
0
0
0
0
0
0
2.40977e-148
2.07981e-45
4.84899e-302
2.77438e-138
1.46021e-253
0
0
0
0
5.25789e-253
0
0
0
0
0
0
2.5089e-143
0
0
0
1.59061e-183
0
0
0
1.63242e-142
0
5.98496e-291
0
1.53628e-246
2.74229e-166
6.4937e-157
1.46246e-179
9.40693e-161
0
0
5.11963e-161
0
0
1.09558e-11
0
3.91903e-163
0.00117834
0
1.88626e-30
3.96534e-165
9.09354e-100
1.129e-64
8.59e-97
0
0
1.86441e-94
0
0
0
4.62833e-102
0
0
1.66856e-315
2.15219e-65
0
0
0
0
0
0
0
1.8682e-97
1.86691e-107
0
0
0
0
4.71324e-95
0
0
0
0
0
0
2.3741e-100
7.4996e-98
3.74668e-118
0
4.33934e-279
4.54451e-160
0
0
1.7325e-20
9.88131e-324
0
2.13803e-276
2.09156e-51
0
0
0
0
0
0
0
2.88861e-302
0
0
5.9246e-36
1.10107e-14
7.6443e-267
1.62676e-131
1.06556e-284
2.87268e-51
0
7.80758e-127
1.64848e-43
4.77801e-319
0
0
1.10606e-311
1.31638e-301
0
0
4.14301e-288
0
0
0
7.64583e-115
2.34139e-244
1.98312e-143
4.61909e-228
0
0
4.10217e-118
0
2.66175e-157
4.90705e-86
0
0
0
1.14078e-163
2.21037e-171
0
7.50155e-218
0
0
0
6.39418e-32
0
0
2.47759e-148
0
0
0
4.52649e-153
0
3.77083e-35
4.34663e-215
4.96814e-214
0
3.36597e-153
1.27151e-99
4.33213e-150
0
0
0
1.2215e-154
3.56657e-79
0
0
1.9907e-84
0
8.86812e-31
0
0
3.36008e-236
0
0
0
0
6.85805e-132
5.66404e-146
0
1.57268e-153
4.31869e-104
0
2.75467e-29
0
0
4.85073e-116
0
0
9.8586e-36
6.32973e-97
4.84911e-157
3.12109e-87
1.71491e-223
0
0
0
0
0
0
0
0
7.2726e-82
0
0
0
0
0
9.57544e-316
0
0
0
0
7.1321e-266
3.316e-262
0
5.3328e-91
5.93428e-24
0
6.84281e-321
3.92329e-24
0
7.41896e-06
0
0
3.6045e-37
0
0
0
0
0
1.20183e-318
0
5.99812e-303
5.33225e-311
0
2.82091e-155
0
0
1.34496e-276
0
0
0
0
0
3.4682e-248
2.48228e-268
3.87954e-10
0
0
0
0
0
1.78548e-131
0
0
0
0
0
1.59118e-303
2.08098e-264
0
7.59952e-23
0
9.74566e-174
0
2.55493e-06
0
0
0
2.16134e-208
1.29597e-179
0
0
3.94334e-200
0
8.91869e-217
0
0
0
0
0
0
0
0
1.88833e-240
7.21832e-58
0
2.28866e-168
0
8.3162e-149
1.3196e-263
3.92961e-48
1.60365e-146
2.75208e-84
0
0
3.83004e-17
0
0
0
1.74966e-314
1.01168e-21
0
0
0
0
0
0
3.52858e-276
0
0
0
0
0
0
0
0
0
0
5.40764e-117
3.18029e-203
9.30696e-256
5.84886e-267
0
0
0
7.54584e-155
1.96828e-112
0
0
0
0
0
1.90376e-34
0
0
0
0
0
1.59815e-249
2.48085e-113
2.17103e-25
3.11222e-27
0
1.36879e-39
0
0
3.85539e-187
0
0
0
6.50102e-128
0
0
1.13809e-29
1.04765e-279
7.89032e-235
0
0
0
0
0
0
2.45054e-166
1.26579e-107
0
0
0
2.09914e-119
2.72272e-125
0
0
2.9621e-272
2.82431e-123
1.35344e-196
5.13687e-116
0
3.45862e-219
4.24621e-138
2.0656e-15
0
0
3.57621e-142
6.60408e-10
2.0912e-15
0
0
0
9.59927e-316
0
7.66486e-136
0
0
0
0
4.4842e-28
0
0
1.25655e-135
1.30532e-144
0
0
0
0
0
0
0
0
2.76001e-114
1.77311e-146
0
0
1.91104e-270
2.40431e-42
5.27549e-19
0
2.2507e-166
0
0
0
0
0
6.22716e-172
1.13307e-14
0
0
0
2.48749e-148
0
0
2.57986e-73
0
1.03397e-109
1.21006e-166
0
5.5352e-167
3.37379e-166
0
0
0
0
0
0
3.28491e-80
4.11568e-180
0
1.26356e-163
0
0
0
0
0
0
0
0
1.89864e-209
0
0
1.54245e-206
1.20673e-09
3.9633e-206
2.31861e-102
1.01002e-312
0
0
0
0
0
0
0
2.06324e-203
0
0
4.56527e-181
0
3.4491e-302
3.07599e-182
1.09025e-315
2.83093e-229
0
0
0
0
0
0
0
0
3.14127e-201
0
0
7.72039e-181
0
4.27532e-123
3.47243e-218
0
6.13054e-132
0
0.0172881
9.90059e-28
3.04409e-18
0.0223122
0
0
0
0
0
0
0
0
0
0
0
0
9.72149e-204
0
0
0
0
0
7.43531e-118
0
0
4.05339e-132
2.40972e-124
2.54526e-313
0
1.60003e-319
0
0
0
2.59468e-161
8.84486e-294
1.2295e-125
0
0
0
0
9.39479e-267
0
0
0
0
2.18498e-111
2.95833e-316
6.52985e-80
1.69412e-110
1.65982e-311
6.4417e-106
3.21143e-322
0
7.18964e-320
0
3.71786e-160
0
0
8.71877e-180
0
0
0
0
0
2.80295e-32
7.42412e-57
1.76391e-54
0
0
0
1.33809e-183
1.65845e-311
0
0
2.62708e-30
5.7516e-301
1.30651e-286
1.15937e-40
0
9.3022e-74
0
1.94019e-307
0
2.03427e-304
0
0
0
2.75129e-299
0
0
0
7.86896e-308
0
0
0
0
0
0
0
0
0
0
7.02305e-272
0
0
0
1.54103e-303
2.65665e-301
8.47654e-22
1.19837e-16
0
0
0
0
1.40232e-34
0
0
1.22937e-140
0
9.26511e-149
3.94663e-144
0
0
0
0
0
1.4193e-90
0
0
0
3.56857e-98
0
1.84478e-148
0
0
0
7.38719e-303
0
9.08522e-142
3.63368e-132
0
0
2.26626e-201
9.46734e-292
0
0
0
1.44778e-139
4.62817e-130
0
2.07866e-141
9.70472e-61
0
0
2.05684e-238
3.01428e-264
0
0
0
1.49863e-132
0
0
2.53091e-286
0
0
1.60034e-144
0
0
0
1.21349e-272
1.36447e-95
0
0
5.83723e-102
0
0
0
0
0
0
0
0
0
0
0
0
0
3.5295e-309
0
0
0
0
5.11187e-156
2.44022e-271
6.19525e-41
1.38331e-268
4.73131e-266
0
0
0
0
5.77894e-266
0
1.8165e-271
2.14446e-217
0
0
3.83173e-171
4.0022e-186
0
0
0
2.84061e-175
0
0
0
1.43234e-249
0
0
0
0
0
0
0
0
8.42363e-251
9.98635e-222
1.74814e-175
0
0
0
0
1.43349e-284
0
1.37101e-157
0
0
0
7.79905e-247
1.27007e-211
0
4.56547e-298
0
2.29325e-80
6.9995e-104
0
0
0
0
0
1.30333e-196
0
0
1.61364e-289
0
0
0
0
1.21285e-143
0
7.69991e-162
0
0
0
2.08421e-159
0
2.43882e-318
4.94066e-324
0
0
0
9.90899e-216
0
0
0
1.52975e-53
0
0
0
1.87599e-202
0
0
0
1.59725e-231
0
0
0
3.70551e-201
0
0
0
3.68112e-51
0
0
0
0
5.3014e-157
0
0
1.21343e-111
4.92424e-241
0
2.35923e-245
0
0
0
1.13807e-249
0
0
1.96655e-39
0
6.96816e-215
0
0
1.25335e-232
0
2.39808e-83
0
1.18318e-75
5.10235e-47
0
0
0
0
0
0
0
3.54245e-321
0
0
1.44536e-81
4.38687e-138
0
0
0
0
6.13675e-32
0
9.69077e-126
2.33166e-73
1.64843e-128
9.83791e-131
0
0
0
0
1.665e-321
0
0
4.76291e-133
0
0
0
0
0
0
0
2.69351e-58
0
0
0
0
0
0
0
0
0
0
1.14602e-188
0
0
0
8.34319e-235
0
0
0
0
0
0
0
0
0
0
0
0
0
0
0
5.78977e-272
1.31748e-292
1.52404e-87
0
0
0
0
0
0
1.18992e-104
0
2.10795e-134
0
0
0
0
0
0
2.24562e-40
4.28495e-07
0
0
0
0
4.85953e-295
3.89614e-09
0
0
0
0
0
3.69558e-153
1.2342e-145
0
3.14064e-64
1.77901e-302
8.45367e-300
0
1.06969e-60
0
0
0
1.8435e-204
7.81116e-261
1.00271e-13
0
9.18315e-279
0
3.05033e-311
4.19226e-132
0
5.35268e-130
2.08001e-24
0
0
0
0
0
0
0
0
1.14646e-124
0
0
0
0
2.79356e-149
0
0
5.58276e-233
0
2.3649e-129
0
0
0
2.54938e-162
1.3678e-171
9.71426e-17
0
2.24792e-26
0
2.61414e-25
0
0
0
0
0
2.10402e-207
2.09238e-129
8.71204e-127
0
0
2.07307e-249
0
0
0
2.04139e-312
4.95997e-289
0
6.68618e-144
9.0732e-199
0
4.57465e-51
0
1.35435e-45
5.73552e-311
0
0
0
0
7.46013e-250
4.93656e-268
0
0
0
0
0
0
0
2.44847e-309
0
0
0
1.10279e-174
0
0
0
3.66863e-223
0
0
0
0
1.12537e-121
0
0
0
0
0
0
1.89873e-63
2.51541e-295
0
4.54471e-316
0
0
1.7686e-286
0
2.9436e-138
0
8.64516e-303
5.71956e-63
1.44019e-69
0
0
0
0
0
0
0
0
7.78326e-289
0
0
0
0
2.89604e-247
0
0
3.7515e-221
2.26185e-225
0
0
1.43579e-243
0
1.37713e-298
1.09439e-141
0
3.18709e-221
0
0
0
1.15704e-113
0
0
0
0
0
0
0
0
0
0
0
0
0
0
4.01053e-250
0
0
0
4.86517e-71
0
0
2.02783e-264
0
0
1.03162e-68
3.12572e-203
0
3.15294e-252
6.88768e-177
0
2.14571e-262
0
0
1.06168e-64
5.40016e-97
3.2983e-198
2.03378e-282
6.33308e-285
1.63303e-206
0
2.7853e-297
0
0
0
0
2.60778e-293
5.47771e-102
0
0
3.03257e-288
0
2.43904e-305
0
7.39385e-275
2.23675e-182
0
0
0
4.22028e-182
6.41874e-293
0
0
0
2.25207e-201
3.09894e-188
0
0
0
0
0
0
0
0
0
0
0
0
8.59421e-154
7.32604e-211
0
5.42889e-228
0
0
2.77462e-104
0
0
0
5.25507e-227
0
0
0
4.08592e-321
0
0
0
0
4.16231e-152
2.67986e-191
0
2.81895e-216
8.88e-263
0
0
0
1.0307e-142
3.84452e-260
0
0
5.10948e-141
1.89785e-103
0
0
0
0
0
1.05933e-254
0
0
0
0
0
0
0
0
0
0
0
0
0
0
2.82557e-314
0
3.09544e-69
0
0
3.93067e-118
1.61021e-122
0
0
3.8689e-110
4.45959e-179
1.09277e-164
2.44598e-314
5.89903e-218
0
0
0
0
0
0
0
0
1.43534e-312
0
0
0
0
7.16909e-277
0
0
0
0
0
0
0
0
0
6.426e-120
0
0
1.37534e-165
0
0
0
0
0
0
0
0
0
0
0
3.73908e-99
9.59918e-155
0
0
1.5768e-154
0
1.96257e-75
0
0
0
2.67384e-253
0
3.21265e-171
1.29706e-154
1.38258e-38
0
0
0
0
3.35021e-111
3.86205e-107
8.23556e-61
0
0
1.90645e-69
0
0
0
3.89695e-27
0
2.53584e-210
3.33291e-155
0
0
0
0
0
0
0
0
0
2.06051e-175
0
0
0
1.21602e-122
0
0
0
0
0
0
0
0
1.04883e-171
9.44835e-79
1.24381e-211
2.30714e-236
0
0
0
0
2.31717e-321
0
0
1.32344e-65
3.60599e-98
0
0
4.1317e-95
6.98474e-23
8.58329e-163
0
0
6.01513e-22
2.77122e-20
2.34221e-283
0
1.74178e-165
0
9.53381e-252
0
0
1.1569e-152
0
0
3.72748e-261
0
0
9.8094e-304
0
8.52472e-69
1.14021e-66
7.66609e-293
4.94066e-324
4.33618e-290
0
0
8.44911e-81
0
0
0
0
0
0
6.03382e-314
2.42158e-189
0
0
1.71888e-311
0
0
0
2.92148e-153
0
0
0
0
0
0
0
0
0
4.67115e-18
9.91028e-158
0
0
0
2.44988e-230
0
0
0
6.43906e-228
0
0
1.23339e-304
1.34326e-120
0
0
6.50746e-250
2.74117e-272
0
2.93939e-226
0
1.01215e-269
0
0
0
3.7943e-15
0
0
2.51005e-272
0
3.09457e-247
1.60314e-09
2.21479e-11
0
0
0
0
6.16065e-207
0
0
0
0
0
1.54067e-120
0
0
3.4915e-207
0
1.13146e-202
0
0
0
0
0
1.49959e-280
8.39921e-248
0
0
2.0083e-226
0
0
0
1.50259e-286
0
0
1.17632e-299
0
0
5.13556e-145
0
1.20108e-263
1.17163e-136
0
0
2.17766e-170
0
0
0
2.24999e-271
0
0
0
0
1.37612e-220
0
0
0
0
0
1.6083e-232
0
0
2.04319e-111
0
0
2.01832e-266
1.14707e-163
0
0
0
6.26762e-47
3.2842e-220
5.29436e-281
2.13341e-237
0
0
5.85729e-92
0
0
1.15189e-132
0
3.92906e-178
3.71407e-45
0
1.38041e-158
1.29246e-40
0
4.37775e-258
0
7.9754e-159
1.01574e-146
0
0
0
0
2.70001e-43
9.29015e-148
0
0
1.34857e-84
8.48995e-161
0
3.83516e-40
0
7.82691e-165
4.70386e-272
2.02547e-38
0
1.99954e-283
0
0
0
0
0
1.67367e-114
2.71908e-255
6.21758e-63
0
0
7.69609e-146
0
0
0
2.79718e-116
2.89389e-87
0
1.19711e-232
3.42691e-216
0
5.18068e-213
0
0
0
0
2.62834e-48
0
0
0
0
0
0
2.69214e-101
3.29637e-120
0
0
0
2.78416e-249
0
0
0
0
0
0
4.89461e-183
0
0
8.65101e-308
0
2.33384e-226
0
0
0
0
5.65789e-299
0
0
7.80218e-115
0
0
0
0
1.27168e-224
0
0
0
7.24499e-309
1.31548e-318
0
0
0
0
1.35654e-294
1.57914e-241
0
0
0
0
0
0
1.32771e-252
4.08559e-292
0
0
0
0
0
3.44366e-287
0
0
0
0
0
7.08669e-316
0
1.78451e-307
0
0
4.27528e-297
0
0
0
0
6.08549e-299
0
0
0
2.7307e-190
1.13238e-230
5.09288e-99
1.00966e-126
0
0
1.40216e-117
0
0
0
5.76745e-145
0
7.38781e-169
0
0
0
0
0
0
0
4.37358e-314
0
0
0
0
0
0
0
0
8.80693e-49
0
8.89366e-215
3.65255e-169
0
0
0
0
1.96709e-299
5.15674e-297
0
0
0
0
0
0
0
0
0
0
0
3.85725e-178
0
0
0
0
8.90461e-257
0
0
0
2.77336e-287
1.25088e-154
5.42628e-232
0
4.97827e-236
7.98102e-211
0
4.73542e-204
2.27753e-284
3.37201e-215
0
0
0
0
7.50334e-129
6.6176e-317
1.20738e-146
0
0
1.09105e-280
2.27584e-130
0
0
0
1.53184e-129
0
2.29333e-113
6.30958e-226
0
0
4.45434e-118
3.35318e-201
0
4.74069e-222
3.04372e-69
0
1.62754e-79
0
2.90968e-111
0
3.95155e-255
0
0
0
0
0
3.42938e-212
1.68174e-41
0
3.32643e-39
0
0
0
0
0
0
0
0
0
0
0
8.58236e-141
1.97875e-184
2.42159e-45
0
1.48901e-37
0
0
1.73493e-58
0
0
0
0
0
0
0
1.36095e-239
0
0
0
0
0
0
0
8.68923e-225
0
0
1.16619e-55
0
0
0
4.0419e-55
0
1.5542e-318
0
3.48236e-55
0
0
0
0
4.16843e-60
0
0
0
0
0
0
8.42474e-58
0
1.07448e-249
0
6.33021e-166
0
0
0
0
0
0
0
0
0
0
3.25583e-238
0
0
0
1.04387e-277
0
0
0
0
0
0
0
2.46749e-302
0
0
0
0
0
0
1.11547e-105
9.67949e-91
4.42435e-237
3.41207e-314
0
1.71642e-123
2.44893e-234
0
1.7898e-263
0
1.19906e-317
0
0
0
0
2.24614e-306
0
8.79801e-114
0
1.48942e-312
0
0
0
0
0
0
0
5.41446e-315
8.36138e-268
0
2.16563e-279
0
6.53599e-320
7.83712e-223
0
0
4.63742e-318
0
1.2722e-126
3.72982e-317
3.13121e-184
0
0
1.31443e-184
1.40235e-308
0
2.40223e-258
0
0
0
0
0
0
0
0
0
0
0
1.95753e-239
0
4.38757e-113
0
0
0
0
2.05171e-51
0
5.80633e-313
7.06454e-296
5.53581e-73
0
0
0
8.63519e-309
0
0
1.28666e-78
0
0
0
0
0
0
1.00603e-314
0
0
0
0
0
0
2.47427e-137
0
4.31543e-268
0
5.20783e-49
0
0
6.62048e-322
4.04262e-140
5.13372e-43
0
0
5.78349e-42
0
2.17339e-320
0
5.1784e-58
9.2771e-209
0
0
0
0
0
0
4.30254e-115
1.82566e-33
1.17479e-09
0
4.12078e-179
0
0
0
0
0
0
2.03643e-154
0
2.57472e-211
0
0
0
0
0
0
0
0
0
0
0
2.7595e-68
0
2.3642e-123
0
0
3.74319e-268
0
4.73571e-58
0
0
0
0
0
3.15944e-140
0
8.06801e-50
0
0
0
0
8.6647e-47
1.0376e-100
0
0
0
3.19138e-140
0
0
4.72929e-133
0
0
0
0
3.7573e-190
4.91608e-277
1.6144e-173
8.19114e-72
6.06432e-116
0
0
0
0
0
3.31325e-108
0
0
1.26219e-94
0
0
4.24085e-266
0
5.03242e-50
7.00137e-82
0
0
0
1.02766e-282
1.91331e-304
0
1.11761e-304
0
0
0
0
0
1.20621e-99
0
1.20913e-269
0
0
0
1.07504e-284
0
0
0
0
0
0
0
6.48764e-208
0
6.09657e-91
0
0
0
0
0
3.49337e-219
0
1.37878e-235
0
0
3.49845e-301
0
0
0
0
0
0
0
0
0
0
0
0
0
0
0
0
0
0
0
0
0
0
0
1.62319e-307
1.2014e-304
0
0
2.1539e-42
0
0
7.41367e-141
0
0
0
5.66046e-36
9.21875e-39
5.20391e-170
0
6.13651e-38
9.10861e-255
0
0
0
5.83842e-56
1.58655e-299
0
0
0
4.41526e-149
0
0
1.1421e-287
0
0
0
0
0
0
0
2.68855e-51
0
0
0
0
0
1.03656e-250
0
0
0
0
0
0
1.45434e-313
0
0
0
4.57079e-262
3.82687e-303
0
2.73987e-89
0
0
1.04833e-150
0
0
9.09548e-223
0
6.58677e-215
0
2.65544e-270
0
0
0
0
0
0
0
0
0
0
0
0
0
0
0
1.56764e-27
0
0
0
1.8059e-301
0
0
1.03656e-206
0
7.29226e-310
0
1.17284e-28
1.7353e-256
0
0
1.81984e-24
7.93027e-309
0
0
8.1431e-278
0
0
1.44465e-280
0
0
0
0
0
0
8.27049e-275
0
2.4007e-311
3.99205e-321
0
3.29706e-306
0
0
0
7.63393e-278
2.84112e-139
0
0
0
0
0
1.60347e-222
4.90653e-194
0
0
9.78383e-283
3.63909e-285
0
0
4.1351e-265
2.72005e-293
6.91369e-45
0
0
0
0
0
0
0
2.9509e-283
0
0
0
0
1.21368e-115
0
1.11822e-278
0
0
9.84819e-300
0
0
1.50599e-142
0
0
0
0
5.85928e-280
1.40718e-118
0
0
0
0
0
3.61782e-137
0
0
3.05489e-09
3.66079e-253
0
0
2.81751e-316
0
0
0
0
0
0
0
2.04077e-266
3.53071e-104
0
0
0
0
0
0
0
0
0
1.94377e-97
0
0
0
0
0
0
0
3.63992e-195
0
0
0
0
8.3878e-195
3.09248e-62
0
0
1.21876e-148
0
0
2.01821e-319
0
0
1.06458e-269
0
0
0
1.84816e-303
4.10086e-203
0
0
7.54273e-192
0
0
0
8.9442e-205
6.03457e-227
0
0
1.53815e-41
0
0
7.90505e-322
2.92355e-284
0
2.54307e-195
0
0
2.86634e-205
0
0
0
0
3.06677e-303
0
0
0
0
0
0
1.02394e-254
0
0
5.97e-244
0
0
0
0
0
3.84659e-250
0
0
2.44779e-117
0
2.12407e-276
0
7.1575e-185
0
0
0
0
1.25986e-186
0
0
0
0
1.15655e-229
3.98202e-315
0
0
9.43214e-231
0
0
4.02846e-242
0
0
0
0
1.69675e-266
1.10637e-221
0
1.55526e-187
0
2.64127e-255
0
0
1.26481e-321
6.5949e-246
5.72313e-117
0
0
0
0
0
0
0
2.22552e-212
3.11319e-304
0
0
9.22226e-189
0
0
0
0
0
0
0
5.01529e-119
0
0
0
1.65398e-121
0
0
0
0
0
0
0
0
0
0
0
0
0
0
0
0
0
0
0
0
1.51029e-122
0
0
0
0
1.00789e-202
4.59176e-245
0
0
0
0
0
0
0
0
0
0
0
2.1205e-209
0
0
0
0
0
0
0
4.9706e-312
0
2.45168e-264
0
0
0
0
0
0
0
0
0
7.09677e-212
8.35187e-294
0
0
0
0
0
0
0
0
0
0
0
0
1.33374e-189
2.68545e-270
0
0
1.13815e-250
0
0
2.32036e-251
0
0
3.52222e-283
0
0
0
0
1.05052e-18
0
0
3.01527e-209
0
0
0
0
0
0
0
0
0
0
1.0608e-180
0
0
0
0
0
0
0
0
0
0
0
0
0
0
1.38643e-301
8.13564e-218
0
0
1.3768e-215
5.31267e-193
1.41222e-216
1.9565e-320
0
0
5.53693e-192
0
1.49302e-204
1.07287e-252
0
0
0
0
0
0
0
0
0
0
0
0
0
6.10062e-114
0
0
0
0
0
0
0
0
0
0
1.0976e-249
0
0
8.25046e-241
0
0
0
0
0
0
0
9.90601e-296
0
0
1.60017e-43
0
0
0
0
1.34838e-191
0
2.611e-110
0
6.95335e-100
0
0
0
0
0
0
0
0
0
0
0
1.2533e-84
0
0
0
0
2.74407e-90
0
0
0
0
0
2.68474e-88
6.67414e-29
0
0
0
0
0
0
0
0
0
0
0
8.41549e-105
0
0
0
7.87331e-180
0
2.91364e-179
4.01638e-177
0
0
0
9.80693e-195
0
2.39139e-08
0
0
0
0
2.89876e-116
0
0
0
0
0
0
0
0
0
0
0
0
0
0
1.15625e-215
0
9.73039e-214
0
0
6.68275e-213
1.4081e-210
0
0
0
0
0
1.81745e-74
0
0
2.76025e-211
0
2.4829e-208
0
7.75627e-102
0
0
8.24779e-226
1.68426e-235
0
0
5.12035e-28
0
0
0
0
0
0
1.12249e-16
1.10485e-235
0
0
0
0
0
0
0
0
3.02963e-174
1.31866e-319
0
0
0
0
0
0
0
0
0
0
0
0
4.54116e-258
0
0
0
0
2.98206e-155
0
2.51186e-157
0
0
2.78495e-288
0
8.30889e-154
0
0
0
0
0
1.1624e-151
0
0
4.257e-212
0
8.66891e-200
0
0
0
0
0
0
0
0
0
0
1.2335e-188
0
0
0
0
0
0
0
0
1.21815e-250
0
0
1.90658e-83
0
0
0
0
0
0
0
0
0
0
0
0
1.28494e-177
1.0787e-181
0
0
0
1.55733e-81
0
0
0
0
0
0
0
8.21544e-110
0
1.13248e-302
6.06243e-307
0
0
0
0
0
0
0
8.32641e-283
0
6.84603e-202
0
4.38459e-199
0
0
0
0
7.37003e-255
0
1.07009e-236
0
0
3.99422e-210
5.95162e-75
0
9.12694e-75
0
0
0
8.44414e-298
0
2.76045e-80
1.2282e-72
0
4.78959e-303
2.39887e-308
1.95113e-314
0
1.14611e-249
2.54681e-316
0
0
0
0
0
0
0
0
0
1.68216e-288
2.18825e-109
0
0
0
0
0
0
0
0
0
0
0
0
0
0
0
0
0
0
0
0
0
0
2.4017e-242
3.60106e-235
2.8031e-219
0
9.43565e-186
0
0
0
0
0
0
0
0
0
0
0
0
3.34172e-220
0
0
0
0
0
0
0
0
0
0
0
0
0
0
0
9.64094e-107
0
0
0
0
0
0
0
6.81327e-293
0
0
3.10809e-179
3.63298e-186
0
0
0
1.18494e-176
0
0
3.00201e-213
0
0
6.8229e-215
1.14623e-212
0
0
0
0
2.49664e-213
0
0
0
0
0
0
2.70567e-227
0
0
0
2.43282e-239
0
3.47646e-180
0
0
0
0
0
2.45729e-287
0
0
0
0
9.40298e-298
0
5.3104e-178
0
0
0
0
0
0
0
0
0
0
8.68716e-303
1.7785e-312
0
0
0
0
0
1.45798e-180
0
2.33337e-190
0
1.17368e-231
0
7.02734e-188
0
2.22981e-312
0
0
0
0
0
0
0
0
3.48326e-59
2.26302e-33
0
1.59998e-308
0
1.4043e-88
3.86478e-188
1.16564e-185
0
1.40153e-122
5.2145e-288
0
3.67211e-181
3.72355e-55
0
1.5163e-284
0
0
1.28706e-99
0
3.61326e-119
2.50704e-108
0
0
0
0
0
1.71177e-139
0
0
1.62953e-137
0
0
0
0
0
0
0
1.25582e-159
0
1.2958e-182
0
0
0
0
9.92434e-178
0
0
0
2.13886e-128
0
4.88081e-173
0
2.93353e-304
0
0
2.89643e-198
0
0
0
6.73571e-166
0
0
0
0
0
0
6.8066e-81
0
9.12535e-50
9.41676e-103
0
3.24669e-120
9.61001e-153
0
0
0
0
0
1.41918e-53
0
0
0
5.36736e-94
0
0.000271343
0
0
0
1.56465e-43
0
2.61291e-26
2.58603e-42
0
3.62526e-133
3.34154e-242
0
1.76661e-174
0
0
0
0
8.38552e-149
1.68688e-20
0
0
0
5.68163e-144
0
0
0
6.77815e-148
0
0
0
0
0
0
4.06112e-241
0
0
7.15385e-52
4.1038e-130
0
0
5.24864e-238
1.52249e-220
0
1.31826e-178
0
2.11393e-131
2.48635e-162
6.15499e-120
0
0
6.74218e-122
0
0
2.2414e-102
8.11632e-106
0
0
0
0
4.41938e-99
2.56631e-155
7.79519e-149
9.62256e-165
0
0
0
1.18477e-159
0
0
2.66867e-97
8.81264e-160
0
4.02654e-153
0
0
3.25313e-210
0
0
1.57439e-249
5.89784e-72
0
5.93681e-215
2.9133e-159
0
0
8.14267e-162
0
1.95355e-238
0
0
8.74101e-50
2.85421e-48
3.76868e-21
0
2.51079e-166
0
1.67227e-156
9.07372e-240
3.09499e-204
0
3.10755e-34
0
0
0
0
8.9304e-179
8.31214e-162
0
1.66676e-163
0
0
0
0
4.73158e-158
6.39879e-173
8.37749e-243
1.46107e-145
0
0
3.72444e-299
0
1.02969e-296
9.27387e-70
4.22287e-173
4.8322e-49
3.74358e-123
5.47072e-100
0
0
0
0
1.89652e-300
6.478e-105
1.53662e-278
3.29799e-218
0
8.43356e-81
5.97869e-298
0
0
3.29359e-150
0
0
0
0
0
0
1.2199e-163
0
0
0
0
0
5.17806e-155
0
0
1.07754e-197
8.39575e-122
2.08892e-148
6.29191e-97
0
4.45282e-22
5.86653e-133
4.03034e-109
0
0
0
1.7375e-93
0
0
6.17572e-18
0
9.41509e-189
0
0
0
1.07547e-35
1.42703e-84
0
0
8.80609e-13
5.07565e-85
0
0
7.50073e-120
0
0
3.19275e-305
1.29574e-79
0
5.41202e-284
4.94066e-323
3.02368e-321
5.78423e-42
0
0
6.41791e-321
0
0
3.34939e-173
0
0
0
0
0
0
0
1.14993e-92
0
0
0
0
0
4.87467e-31
0
2.96907e-45
0
2.23391e-67
0
0
1.46124e-113
0
0
3.87164e-128
4.12521e-45
0
0
5.47365e-119
2.1223e-300
2.27855e-120
1.88224e-152
0
0
0
0
0
0
1.19219e-187
2.97127e-80
0
0
3.54362e-123
0
0
0
3.51922e-173
0
3.49476e-101
9.87802e-73
0
0
0
3.12182e-163
9.51323e-287
0
2.05296e-87
0
6.61056e-52
0
0
0
0
0
0
8.25805e-112
0
0
0
0
6.68156e-100
2.25993e-40
0
2.31392e-39
0
0
0
0
2.6459e-143
3.46148e-122
7.762e-120
4.84397e-240
0
1.38258e-231
3.339e-140
2.08731e-177
5.86957e-276
7.21042e-186
3.99474e-115
1.22158e-243
0
8.00905e-281
3.72948e-264
0
0
0
0
0
9.93642e-41
5.55088e-237
0
0
1.22678e-08
3.06489e-259
1.37978e-93
0
0
0
0
1.49112e-54
2.34732e-47
0
0
1.38296e-253
0
4.94066e-323
0
0
0
3.8458e-145
1.95874e-263
0
0
0
0
0
5.38104e-270
0
0
0
7.95803e-118
0
0
1.37365e-120
3.93747e-282
0
0
0
0
0
0
0
0
0
7.39583e-204
3.33849e-103
1.90694e-88
0
0
0
1.4478e-33
0
0
7.11853e-178
5.76365e-114
6.20022e-198
3.93158e-130
0
0
1.4134e-66
0
2.05283e-14
0
0
3.61544e-26
0
1.22951e-201
1.93493e-24
0
0
0
1.78005e-195
9.66487e-64
1.90465e-62
0
0
0
0
0
3.89918e-110
0
0
0
0
0
6.96217e-179
0
0
0
0
0
0
0
6.59676e-88
0
0
0
0
0
0
1.50771e-32
0
0
1.47829e-283
1.55723e-185
0
7.48815e-263
0
0
0
0
0
6.5052e-190
0
0
0
2.29518e-62
0
4.34858e-176
0
1.08281e-83
0
0
0
0
2.16939e-108
2.68947e-98
0
0
1.14346e-145
0
0
0
0
0
0
0
3.09664e-119
3.56803e-74
6.55096e-122
5.42825e-105
0
1.60708e-126
0
3.73821e-87
0
0
0
0
4.13878e-96
0
0
5.98772e-101
0
0
0
0
0
0
0
8.09021e-250
0
0
0
3.18569e-260
0
2.35624e-133
0
0
1.27066e-26
5.54129e-31
0
0
0
3.32176e-57
0
0
1.82292e-297
1.79844e-118
0
6.33643e-286
9.11717e-35
0
3.03038e-291
2.26501e-41
0
0
4.60791e-284
0
4.284e-317
0
0
0
0
6.11041e-128
0
3.75012e-21
0
0
0
5.98819e-317
1.34808e-40
1.15956e-123
1.78195e-85
0
0
8.70544e-321
0
0
0
0
8.03246e-14
4.0448e-314
0
5.99893e-32
0
0
4.62205e-109
0
9.356e-24
0
0
0
2.31065e-297
6.96335e-115
0
0
0
8.89342e-199
1.47045e-103
1.16366e-308
8.04377e-23
5.30756e-299
5.20889e-251
0
0
0
0
0
0
2.59073e-279
1.64193e-119
0
1.43846e-91
0
0
0
2.49429e-233
7.27562e-17
7.13612e-37
1.56929e-47
0
0
0.00536525
3.35089e-260
0
0
0
2.59037e-126
0
1.5215e-90
3.04383e-76
1.81474e-81
3.44472e-82
0
0
0
0
2.47719e-263
0
2.16798e-21
4.0201e-78
0
0
0
4.33527e-30
0
4.00712e-30
0
0
1.18772e-64
0
1.04564e-319
0
0
8.71498e-137
0
0
8.72313e-212
0
0
0
1.35359e-80
1.01655e-53
4.97973e-156
1.52661e-163
0
0
9.52754e-45
0
1.08026e-51
3.05074e-95
1.75717e-205
5.59103e-204
0
0
0
5.97567e-106
0
0
0
0
0
0
1.33786e-289
2.30398e-118
5.82247e-287
0
2.92321e-32
1.69121e-38
4.58666e-303
0
2.03975e-300
4.25166e-84
5.17656e-166
0
5.13041e-83
4.15234e-42
1.39923e-51
4.35519e-56
0.0119784
1.0861e-18
0
3.18694e-36
0
0
0
0
4.32842e-300
9.08017e-287
1.73067e-20
0
4.01103e-13
0
0
4.17025e-315
0
0
2.19191e-260
5.95902e-258
3.45032e-255
0
2.69318e-316
1.87094e-258
0
7.63629e-314
0
9.52378e-256
1.27654e-98
0
9.8166e-57
0
1.32194e-33
7.08945e-32
0
0
1.196e-28
4.2578e-28
0
2.66508e-53
0
5.44608e-23
1.77869e-24
0
0
0
6.26349e-78
2.66353e-42
0
2.51912e-32
1.3732e-30
0
1.73906e-30
4.61796e-11
6.57259e-35
0
2.65115e-226
0
0
1.80601e-153
0
0
4.2328e-45
6.90813e-25
5.30388e-39
6.84464e-156
9.46456e-257
0
0
0
8.68987e-319
0
0
9.59088e-274
7.06376e-24
0
1.36756e-73
5.91168e-46
0
2.04857e-63
0
0
8.47876e-151
4.05011e-278
3.40155e-288
1.42031e-81
1.38789e-05
2.91976e-07
3.95253e-323
0
0
0
0
0
0
0
0
3.3381e-271
0
0
0
5.38999e-29
1.87116e-111
0
0
6.78582e-20
1.26171e-133
5.97191e-313
3.09891e-74
2.69468e-132
0
0
5.74939e-49
2.90669e-25
1.88913e-13
0
7.34362e-189
1.34788e-187
0
9.18275e-17
3.57807e-14
1.02106e-29
4.87631e-15
0
0
4.37313e-88
5.61491e-40
4.36277e-67
0
3.69636e-214
1.25276e-221
0
0
0
6.88101e-114
0
0
0
1.36617e-43
0
1.17899e-34
0
0
7.13041e-242
5.49968e-120
3.65727e-17
2.71088e-56
9.19414e-18
0
0
1.36466e-190
0
0
0
7.5891e-19
0
3.34736e-231
3.07514e-19
1.69131e-129
1.86597e-23
0
0
0
4.37648e-154
4.74044e-22
0
2.07927e-304
1.29108e-20
0
0
1.24813e-98
0
0
8.75904e-255
0
0
0
3.38764e-246
0
0
0
5.27608e-17
9.60531e-127
2.36072e-130
0
0
0
1.41233e-272
0
3.26299e-258
0
8.4255e-76
0
2.07517e-216
0
1.34003e-152
8.55459e-108
2.07088e-129
7.34637e-131
0
1.71633e-117
4.24335e-132
2.83144e-124
0
3.88617e-202
0
1.33876e-199
0
9.39786e-172
0
2.57095e-87
1.27938e-180
0
0
3.9199e-264
6.81894e-269
0
7.93407e-124
1.21145e-203
3.56599e-303
1.63049e-37
0
0
0
0
1.78642e-113
0
0
0
0
0
5.45307e-299
1.05659e-238
1.37404e-80
4.56951e-75
1.48728e-179
0
3.20875e-173
0
5.64402e-211
1.86565e-263
0
1.11708e-159
0
9.64162e-157
9.63163e-61
2.01406e-240
2.51943e-69
0
0
0
1.14289e-208
0
0
0
1.29277e-213
0
1.83198e-208
3.71365e-184
1.46992e-230
0
4.04952e-141
8.40222e-143
0
1.68619e-154
0
0
0
0
0
0
0
0
0
0
1.77527e-235
4.76152e-149
0
0
0
0
3.46249e-166
1.47223e-28
2.00124e-301
0
1.66218e-73
0
0
2.71211e-258
0
8.42159e-197
0
3.23039e-270
6.98281e-146
4.85459e-273
2.5556e-146
0
0
9.33649e-123
7.79633e-117
0
8.4601e-151
0
0
1.21077e-315
0
5.18963e-273
0
0
0
0
0
2.82381e-199
0
0
0
0
6.70967e-215
0
1.00811e-108
0
0
0
0
0
0
0
8.4842e-284
4.75261e-287
3.64871e-277
5.63346e-25
0
0
0
0
0
7.37794e-213
0
2.58376e-216
3.98738e-207
0
2.14244e-314
4.89838e-264
7.14417e-265
0
0
0
0
0
0
0
0
0
0
0
0
0
0
7.45051e-321
0
7.1474e-23
0
0
2.73255e-51
9.3931e-97
0
0
0
0
0
2.66147e-219
7.34656e-190
0
0
0
0
0
0
4.04187e-120