/*--------------------------------*- C++ -*----------------------------------*\
| =========                 |                                                 |
| \\      /  F ield         | OpenFOAM: The Open Source CFD Toolbox           |
|  \\    /   O peration     | Version:  v2012                                 |
|   \\  /    A nd           | Website:  www.openfoam.com                      |
|    \\/     M anipulation  |                                                 |
\*---------------------------------------------------------------------------*/
FoamFile
{
    version     2.0;
    format      ascii;
    class       volScalarField;
    location    "1";
    object      k;
}
// * * * * * * * * * * * * * * * * * * * * * * * * * * * * * * * * * * * * * //

dimensions      [0 2 -2 0 0 0 0];


internalField   nonuniform List<scalar> 
108993
(
9.10579e-05
9.06545e-05
8.84579e-05
9.13419e-05
9.13355e-05
8.58992e-05
9.02395e-05
8.94934e-05
9.15167e-05
9.07307e-05
9.16843e-05
9.16294e-05
8.98863e-05
8.99086e-05
9.03977e-05
8.88524e-05
8.93179e-05
9.05324e-05
8.99505e-05
9.0517e-05
8.87126e-05
9.11557e-05
8.95434e-05
9.1268e-05
9.11754e-05
9.0508e-05
9.4314e-05
9.1034e-05
9.18216e-05
8.74656e-05
9.7991e-05
9.15661e-05
0.000119284
9.14502e-05
9.06306e-05
9.13462e-05
9.44438e-05
9.13039e-05
8.96432e-05
9.04002e-05
9.21801e-05
9.18077e-05
9.06373e-05
9.25147e-05
9.04738e-05
8.7698e-05
0.000119775
9.03052e-05
9.23323e-05
9.11696e-05
9.19091e-05
9.20751e-05
9.08146e-05
9.14652e-05
9.15195e-05
9.17445e-05
9.12765e-05
9.08522e-05
8.94312e-05
9.1901e-05
9.10481e-05
9.11624e-05
9.0928e-05
8.99478e-05
9.08498e-05
9.1869e-05
8.97172e-05
9.15808e-05
9.21371e-05
9.1243e-05
9.07455e-05
9.05013e-05
9.12437e-05
9.10349e-05
9.02228e-05
0.000107979
8.95048e-05
9.22866e-05
9.21839e-05
9.09843e-05
9.05912e-05
9.01724e-05
8.99374e-05
8.98262e-05
9.18246e-05
9.04934e-05
9.18716e-05
9.02382e-05
9.0657e-05
9.16668e-05
9.08395e-05
9.9941e-05
9.15792e-05
8.88804e-05
9.13326e-05
9.12405e-05
9.19428e-05
8.83691e-05
9.49556e-05
9.00186e-05
9.15004e-05
9.2381e-05
9.21177e-05
9.18175e-05
8.90392e-05
9.1588e-05
9.18282e-05
9.23101e-05
9.17376e-05
9.18659e-05
8.98915e-05
9.07801e-05
9.0596e-05
9.10996e-05
9.12497e-05
8.99297e-05
9.01051e-05
8.95225e-05
9.21164e-05
9.32071e-05
9.08639e-05
9.0493e-05
9.05004e-05
8.76027e-05
9.03599e-05
9.09572e-05
9.12655e-05
9.0201e-05
9.00163e-05
9.18743e-05
9.03085e-05
9.17065e-05
9.19903e-05
8.94414e-05
9.09467e-05
8.96158e-05
9.05673e-05
9.00966e-05
8.99619e-05
9.06088e-05
8.99641e-05
9.93701e-05
9.05951e-05
9.06404e-05
9.15627e-05
9.11531e-05
8.95367e-05
8.93691e-05
9.06284e-05
9.07825e-05
9.08403e-05
8.93785e-05
8.93295e-05
9.14601e-05
9.11263e-05
9.07832e-05
9.22305e-05
9.16972e-05
0.000105248
9.09768e-05
9.1568e-05
0.000126549
0.00191656
9.04659e-05
9.06471e-05
9.14631e-05
9.07e-05
8.94697e-05
8.93879e-05
9.20356e-05
9.14804e-05
9.14466e-05
9.14628e-05
9.00436e-05
9.07478e-05
9.05494e-05
9.01048e-05
9.00299e-05
9.15811e-05
8.98969e-05
9.01831e-05
8.95332e-05
9.09497e-05
7.86091e-05
9.21468e-05
9.11777e-05
9.12735e-05
9.117e-05
9.11465e-05
8.01031e-05
9.11837e-05
9.283e-05
9.00972e-05
9.10212e-05
9.15719e-05
9.07091e-05
9.19372e-05
9.12644e-05
9.17419e-05
8.19528e-05
9.15545e-05
9.15529e-05
8.86449e-05
8.98263e-05
9.13895e-05
8.851e-05
9.03491e-05
9.12121e-05
9.07992e-05
8.92076e-05
8.97979e-05
9.05504e-05
8.95687e-05
9.03799e-05
8.9199e-05
8.80798e-05
9.01236e-05
9.11981e-05
9.11667e-05
9.26241e-05
9.09985e-05
8.99453e-05
9.15385e-05
9.06225e-05
9.01355e-05
8.89611e-05
9.10312e-05
9.18463e-05
9.14612e-05
8.94851e-05
8.43708e-05
9.11611e-05
8.95911e-05
8.95248e-05
9.04961e-05
9.90037e-05
9.14546e-05
9.04616e-05
9.05406e-05
9.14258e-05
9.47974e-05
9.15797e-05
8.74215e-05
9.11831e-05
9.19454e-05
9.05307e-05
9.08362e-05
9.0747e-05
9.20561e-05
9.18394e-05
0.00224017
9.11427e-05
9.077e-05
9.14856e-05
9.13165e-05
9.1484e-05
9.12428e-05
9.08339e-05
9.2489e-05
8.7369e-05
9.10517e-05
8.97276e-05
9.18472e-05
8.94779e-05
9.16145e-05
9.0982e-05
9.18689e-05
9.21214e-05
8.73002e-05
9.09033e-05
8.82175e-05
8.9121e-05
9.11744e-05
9.01101e-05
9.0483e-05
9.05448e-05
9.31818e-05
9.20508e-05
9.17276e-05
9.093e-05
9.15084e-05
8.89795e-05
8.77248e-05
9.02367e-05
9.14379e-05
9.10811e-05
8.90348e-05
9.14996e-05
9.19653e-05
8.60891e-05
9.07821e-05
9.00561e-05
9.17488e-05
9.14657e-05
9.10198e-05
8.9675e-05
9.63279e-05
9.09599e-05
8.96296e-05
8.62088e-05
8.97634e-05
8.93329e-05
9.1574e-05
8.89859e-05
9.12714e-05
8.93356e-05
8.83428e-05
8.98927e-05
8.88674e-05
9.17396e-05
9.16241e-05
9.16298e-05
8.98523e-05
9.06172e-05
9.16816e-05
8.99822e-05
8.80856e-05
9.018e-05
9.05045e-05
9.21712e-05
9.05895e-05
8.82948e-05
8.82885e-05
8.77913e-05
8.92791e-05
9.04712e-05
9.04338e-05
9.18925e-05
9.06116e-05
9.18944e-05
9.22997e-05
9.21591e-05
8.73158e-05
9.06773e-05
9.06206e-05
9.04395e-05
9.11357e-05
9.13907e-05
9.12755e-05
9.04632e-05
9.08353e-05
9.05613e-05
9.02789e-05
9.14719e-05
9.03573e-05
9.0627e-05
9.00983e-05
9.01634e-05
9.05396e-05
8.96544e-05
9.13895e-05
8.79395e-05
8.7928e-05
9.05036e-05
9.04296e-05
9.09613e-05
9.01741e-05
8.71789e-05
9.04386e-05
8.61429e-05
9.23395e-05
9.02033e-05
8.91295e-05
9.06347e-05
9.10965e-05
9.16243e-05
9.14903e-05
9.03129e-05
9.06931e-05
9.1367e-05
8.94326e-05
9.14785e-05
8.98273e-05
9.09e-05
9.24738e-05
9.12589e-05
9.17578e-05
9.30771e-05
8.92224e-05
9.14605e-05
8.85846e-05
8.89914e-05
9.18127e-05
8.95694e-05
9.06367e-05
8.7592e-05
9.03051e-05
8.93304e-05
9.05969e-05
9.17776e-05
8.89417e-05
8.80308e-05
8.88274e-05
8.98505e-05
8.94341e-05
9.31655e-05
9.01442e-05
9.11077e-05
9.05283e-05
9.09757e-05
9.30664e-05
9.03737e-05
8.93376e-05
9.10804e-05
9.1325e-05
8.8166e-05
9.01698e-05
8.69559e-05
9.03961e-05
8.93277e-05
9.03775e-05
9.00789e-05
8.92889e-05
9.00021e-05
9.11707e-05
9.1975e-05
9.11222e-05
9.02944e-05
8.60628e-05
9.04636e-05
9.07896e-05
9.07817e-05
8.83549e-05
8.87615e-05
9.15572e-05
8.69247e-05
9.14061e-05
8.81684e-05
8.93628e-05
8.7466e-05
8.92988e-05
9.07939e-05
9.02573e-05
9.08158e-05
9.04516e-05
9.10609e-05
9.02052e-05
9.13241e-05
9.1717e-05
9.25736e-05
9.06018e-05
9.05074e-05
9.20275e-05
8.76298e-05
9.13597e-05
9.17182e-05
9.00032e-05
9.16827e-05
9.06256e-05
8.83348e-05
9.08034e-05
9.09988e-05
9.16505e-05
9.27153e-05
9.23009e-05
9.0884e-05
9.09119e-05
9.056e-05
9.22166e-05
9.00185e-05
8.63219e-05
9.08641e-05
8.6989e-05
9.11171e-05
9.08122e-05
8.88111e-05
8.94248e-05
8.88902e-05
8.81797e-05
8.99341e-05
8.72739e-05
9.13981e-05
9.18059e-05
9.05218e-05
9.1842e-05
9.00408e-05
0.000102122
9.16383e-05
9.00021e-05
9.14843e-05
9.01799e-05
9.26282e-05
9.20084e-05
9.14683e-05
8.88162e-05
8.98892e-05
8.98982e-05
8.90329e-05
9.0366e-05
9.17758e-05
9.09683e-05
9.16518e-05
8.95125e-05
8.9459e-05
9.06508e-05
8.7801e-05
8.95114e-05
9.15081e-05
8.88733e-05
9.07074e-05
8.95558e-05
9.11394e-05
9.05304e-05
9.09747e-05
9.14186e-05
9.13951e-05
9.07216e-05
9.30512e-05
8.99267e-05
9.09139e-05
9.13646e-05
9.03455e-05
9.41919e-05
9.19093e-05
9.09871e-05
9.05595e-05
8.96581e-05
9.09148e-05
9.19774e-05
9.22615e-05
8.82337e-05
8.80062e-05
9.11186e-05
9.13782e-05
9.19695e-05
9.04371e-05
9.05823e-05
9.13861e-05
9.05893e-05
9.18685e-05
8.90325e-05
9.04086e-05
8.98373e-05
9.02506e-05
9.05221e-05
9.19304e-05
9.0322e-05
9.13591e-05
9.16503e-05
9.02679e-05
8.90662e-05
9.09534e-05
9.0771e-05
9.19148e-05
9.18839e-05
9.07014e-05
8.91499e-05
8.99476e-05
9.1757e-05
8.92012e-05
8.98398e-05
8.9507e-05
8.93659e-05
9.2302e-05
9.17158e-05
8.91131e-05
0.000135427
9.19759e-05
9.02789e-05
8.96254e-05
9.12215e-05
0.00194751
8.96805e-05
9.14638e-05
8.77258e-05
9.0122e-05
9.13881e-05
0.000126803
9.28914e-05
9.16932e-05
9.13934e-05
8.87246e-05
8.83903e-05
8.82943e-05
9.09518e-05
9.09563e-05
9.21063e-05
8.81208e-05
8.90039e-05
9.10336e-05
9.19163e-05
9.03063e-05
9.20055e-05
9.2482e-05
9.13974e-05
8.97e-05
8.98828e-05
8.83331e-05
9.1816e-05
8.8274e-05
9.22281e-05
8.86423e-05
9.05075e-05
9.08373e-05
8.96161e-05
9.02397e-05
9.25647e-05
8.8817e-05
9.19294e-05
9.05216e-05
9.13365e-05
9.18984e-05
9.15631e-05
9.00224e-05
8.97779e-05
8.79139e-05
9.1271e-05
8.85162e-05
9.08347e-05
9.1349e-05
9.0277e-05
9.12638e-05
9.20862e-05
9.07038e-05
9.24509e-05
9.03703e-05
9.14175e-05
8.85314e-05
8.97264e-05
9.01692e-05
9.21472e-05
9.09363e-05
9.13883e-05
9.14826e-05
9.18326e-05
9.17784e-05
9.27821e-05
9.11958e-05
8.98552e-05
9.11963e-05
9.14843e-05
9.08528e-05
9.13124e-05
8.9582e-05
9.05964e-05
8.96997e-05
8.87459e-05
9.19421e-05
9.04221e-05
9.15264e-05
9.05123e-05
9.13932e-05
9.03815e-05
9.00246e-05
8.99329e-05
9.01404e-05
9.09551e-05
8.94592e-05
9.01743e-05
9.06436e-05
9.11455e-05
8.96315e-05
9.04926e-05
8.66159e-05
9.17494e-05
9.01752e-05
8.8435e-05
8.51014e-05
9.06399e-05
8.61096e-05
8.33958e-05
9.10553e-05
8.87643e-05
9.08617e-05
8.98202e-05
9.10746e-05
8.90942e-05
9.15726e-05
8.92148e-05
9.01035e-05
9.21859e-05
9.22891e-05
9.19551e-05
8.79692e-05
8.71095e-05
9.21825e-05
8.9985e-05
8.71514e-05
9.1072e-05
9.17828e-05
9.03915e-05
9.1613e-05
9.07334e-05
9.12164e-05
8.68604e-05
9.30932e-05
9.21379e-05
8.68e-05
8.72259e-05
9.07133e-05
9.3188e-05
9.0844e-05
9.1374e-05
8.9236e-05
9.10188e-05
8.92877e-05
8.9023e-05
8.96383e-05
8.90593e-05
9.07336e-05
9.11343e-05
0.000106546
8.62081e-05
8.68491e-05
9.25253e-05
8.73016e-05
9.12869e-05
8.98847e-05
9.16284e-05
8.99659e-05
9.11697e-05
9.14247e-05
9.10842e-05
9.17002e-05
9.0487e-05
8.89638e-05
8.9803e-05
9.09945e-05
8.85725e-05
9.1591e-05
9.16801e-05
9.13194e-05
9.26337e-05
8.98221e-05
9.00496e-05
9.13113e-05
9.16235e-05
8.9098e-05
8.96838e-05
9.14122e-05
9.06989e-05
9.10278e-05
8.9085e-05
9.01274e-05
9.14879e-05
8.91537e-05
9.21102e-05
8.93945e-05
9.13119e-05
9.23096e-05
8.99681e-05
8.86584e-05
9.12945e-05
9.03953e-05
9.16463e-05
9.18368e-05
9.20883e-05
9.27538e-05
9.14377e-05
9.31998e-05
9.15837e-05
8.85033e-05
8.96195e-05
9.24322e-05
8.86801e-05
8.99622e-05
8.91497e-05
8.59453e-05
9.23761e-05
9.01172e-05
9.06903e-05
9.06574e-05
9.25155e-05
9.07682e-05
8.74486e-05
9.15894e-05
9.15073e-05
8.955e-05
9.1402e-05
9.13355e-05
9.03088e-05
9.09231e-05
9.13063e-05
9.1606e-05
9.04727e-05
9.23587e-05
9.07879e-05
9.02202e-05
8.80881e-05
9.03119e-05
8.68143e-05
8.90824e-05
9.13441e-05
9.06848e-05
9.08184e-05
8.98822e-05
9.09811e-05
8.90849e-05
9.13388e-05
8.733e-05
9.12396e-05
8.96777e-05
9.11502e-05
9.07378e-05
9.18462e-05
9.25718e-05
9.00672e-05
9.17557e-05
8.8205e-05
9.16511e-05
9.00135e-05
9.0309e-05
9.17317e-05
9.04826e-05
9.13619e-05
9.65344e-05
9.13541e-05
9.06178e-05
8.97158e-05
9.01131e-05
9.00688e-05
9.11135e-05
9.11334e-05
8.86188e-05
8.94166e-05
9.03773e-05
8.88679e-05
9.09278e-05
9.05471e-05
8.91267e-05
8.98302e-05
8.89737e-05
9.08623e-05
9.1411e-05
9.07366e-05
8.99157e-05
8.87143e-05
8.95102e-05
8.93295e-05
9.23723e-05
9.08235e-05
9.13839e-05
9.10639e-05
9.25685e-05
9.0026e-05
8.87221e-05
9.05266e-05
8.85782e-05
9.22561e-05
9.01966e-05
8.92346e-05
9.19346e-05
9.039e-05
9.22704e-05
9.10223e-05
9.10386e-05
9.08405e-05
9.16083e-05
8.48729e-05
9.11264e-05
8.59635e-05
9.10841e-05
8.5215e-05
9.1438e-05
9.1107e-05
8.6396e-05
9.04955e-05
9.10514e-05
9.2659e-05
8.65929e-05
8.77352e-05
9.03746e-05
9.08768e-05
8.7231e-05
9.04645e-05
9.15989e-05
9.08496e-05
8.8219e-05
9.16952e-05
8.99385e-05
8.97035e-05
9.0426e-05
8.9704e-05
8.69168e-05
9.05695e-05
8.99889e-05
9.15853e-05
8.82014e-05
9.04115e-05
8.85946e-05
8.50035e-05
8.74982e-05
8.96337e-05
9.09999e-05
9.01195e-05
8.71689e-05
9.06518e-05
8.76539e-05
9.02876e-05
9.04246e-05
9.08354e-05
9.05762e-05
8.87028e-05
9.019e-05
9.04486e-05
8.94671e-05
9.0498e-05
9.12161e-05
8.96154e-05
9.25881e-05
9.07824e-05
9.04505e-05
9.03052e-05
8.73326e-05
9.17216e-05
9.10566e-05
8.86584e-05
8.98317e-05
8.88471e-05
9.17383e-05
9.08843e-05
9.11747e-05
9.28607e-05
9.19716e-05
8.94761e-05
8.94516e-05
8.92907e-05
9.12385e-05
9.21285e-05
9.01038e-05
8.90776e-05
9.16926e-05
9.03428e-05
9.18585e-05
9.17625e-05
9.18703e-05
8.90801e-05
9.25006e-05
9.086e-05
8.70403e-05
8.95426e-05
8.89956e-05
8.95135e-05
9.156e-05
9.27379e-05
8.98684e-05
9.04474e-05
8.96571e-05
9.1481e-05
8.67845e-05
8.9224e-05
9.02424e-05
8.9603e-05
9.03475e-05
9.10416e-05
8.92462e-05
8.82716e-05
8.9436e-05
9.18767e-05
9.065e-05
9.11322e-05
9.14221e-05
8.94842e-05
9.11771e-05
9.04192e-05
9.08155e-05
9.02288e-05
9.05082e-05
8.78633e-05
9.13773e-05
8.99553e-05
9.0027e-05
8.98041e-05
9.19105e-05
8.77876e-05
9.00229e-05
9.1606e-05
9.11702e-05
9.06575e-05
9.04921e-05
8.82756e-05
9.08893e-05
8.85011e-05
9.37002e-05
8.82917e-05
8.89212e-05
0.000901021
9.13921e-05
9.17595e-05
8.88185e-05
9.00555e-05
8.9848e-05
9.02518e-05
8.88308e-05
9.04532e-05
9.12086e-05
9.11558e-05
9.02597e-05
9.18083e-05
9.06756e-05
8.92959e-05
9.16672e-05
9.10131e-05
8.92915e-05
9.00258e-05
8.86735e-05
9.02494e-05
8.85622e-05
9.12682e-05
8.88672e-05
9.03714e-05
8.94466e-05
9.04861e-05
8.98282e-05
9.1024e-05
9.29129e-05
9.06687e-05
8.99298e-05
8.90485e-05
9.00517e-05
9.08387e-05
9.08415e-05
9.16724e-05
8.54332e-05
9.1097e-05
9.11116e-05
9.01119e-05
8.99857e-05
9.10275e-05
8.81441e-05
8.85703e-05
9.03768e-05
9.11715e-05
9.07631e-05
9.16998e-05
9.18209e-05
9.11593e-05
9.06823e-05
9.22155e-05
9.03918e-05
9.19419e-05
9.16719e-05
9.15213e-05
9.16124e-05
9.21154e-05
9.33844e-05
9.14171e-05
9.57403e-05
9.30089e-05
9.04409e-05
8.94934e-05
9.10715e-05
9.11538e-05
9.1797e-05
9.09395e-05
9.154e-05
8.92589e-05
9.0107e-05
9.04528e-05
9.02279e-05
9.07897e-05
9.04064e-05
9.14466e-05
9.08619e-05
8.7612e-05
9.10544e-05
9.07433e-05
9.00809e-05
8.80626e-05
9.19057e-05
8.87933e-05
9.04483e-05
9.07768e-05
9.21602e-05
9.25059e-05
9.03339e-05
9.02672e-05
8.93531e-05
8.96895e-05
8.99744e-05
9.22338e-05
8.95133e-05
9.30702e-05
9.1886e-05
9.23585e-05
8.87295e-05
8.71904e-05
9.05947e-05
8.91073e-05
9.02746e-05
9.08639e-05
8.96249e-05
8.94064e-05
9.122e-05
9.13967e-05
9.16239e-05
8.9089e-05
9.14051e-05
9.05142e-05
8.93878e-05
9.07123e-05
9.17452e-05
9.14878e-05
8.74623e-05
9.25777e-05
9.14189e-05
8.93634e-05
9.0375e-05
9.07787e-05
9.10528e-05
9.33864e-05
9.27707e-05
0.000104962
9.32815e-05
9.21049e-05
8.93973e-05
8.87669e-05
8.97188e-05
9.16806e-05
8.92123e-05
9.18853e-05
9.05629e-05
8.6966e-05
8.87668e-05
9.20333e-05
9.30206e-05
8.87295e-05
9.12084e-05
9.19885e-05
9.04845e-05
9.03282e-05
9.08119e-05
8.7511e-05
9.022e-05
8.71203e-05
9.15478e-05
9.1349e-05
9.00623e-05
9.14153e-05
8.87463e-05
9.08516e-05
9.03054e-05
9.05181e-05
9.13974e-05
9.00786e-05
9.15193e-05
8.77533e-05
9.10918e-05
9.20637e-05
9.16616e-05
9.14734e-05
9.15987e-05
8.88746e-05
8.69096e-05
9.13196e-05
9.23477e-05
8.96776e-05
9.04687e-05
9.14546e-05
9.11721e-05
9.16988e-05
9.22427e-05
8.86473e-05
9.09323e-05
8.74791e-05
0.000111472
8.97505e-05
8.65507e-05
9.16757e-05
8.84455e-05
8.9887e-05
9.21829e-05
9.00041e-05
8.83285e-05
9.0047e-05
9.04159e-05
9.04548e-05
8.96083e-05
9.19821e-05
9.04497e-05
8.78731e-05
8.93459e-05
9.10935e-05
9.16346e-05
9.09427e-05
8.84089e-05
8.80121e-05
8.81302e-05
9.05492e-05
9.06928e-05
9.47144e-05
8.98797e-05
9.23235e-05
8.92304e-05
9.02107e-05
8.99012e-05
9.13158e-05
8.58143e-05
8.99815e-05
8.83742e-05
9.21956e-05
9.04148e-05
9.18766e-05
9.03519e-05
9.14032e-05
9.10478e-05
9.26542e-05
9.06921e-05
8.8454e-05
0.00013118
8.77219e-05
8.9733e-05
9.05578e-05
8.99678e-05
9.12208e-05
8.99821e-05
9.14584e-05
8.95973e-05
9.11417e-05
8.96545e-05
9.05218e-05
9.07916e-05
9.03177e-05
9.0028e-05
9.14488e-05
9.08556e-05
8.96278e-05
9.02794e-05
8.79608e-05
9.13584e-05
9.07294e-05
9.07774e-05
9.20278e-05
8.9789e-05
8.93318e-05
9.1537e-05
8.94612e-05
9.14107e-05
8.8992e-05
9.26828e-05
9.45043e-05
9.03771e-05
8.77475e-05
9.04232e-05
9.30992e-05
9.29037e-05
9.21154e-05
9.10287e-05
8.92822e-05
9.09202e-05
9.26122e-05
9.21366e-05
9.21075e-05
9.51536e-05
9.07224e-05
9.12602e-05
9.05303e-05
8.99924e-05
8.97611e-05
9.1252e-05
9.18082e-05
9.15914e-05
8.89642e-05
9.14491e-05
9.03571e-05
8.79944e-05
9.03242e-05
9.11546e-05
9.04377e-05
9.07796e-05
8.99978e-05
9.16767e-05
8.6475e-05
8.49727e-05
8.56425e-05
8.97573e-05
8.63434e-05
9.20227e-05
8.53947e-05
8.75608e-05
8.77416e-05
8.85656e-05
9.05726e-05
9.00918e-05
9.21007e-05
9.1671e-05
8.99834e-05
8.94406e-05
9.23332e-05
9.07395e-05
9.03412e-05
9.19736e-05
9.20583e-05
9.23087e-05
8.98339e-05
9.19034e-05
8.93646e-05
8.8845e-05
9.11262e-05
9.12477e-05
8.21511e-05
8.94836e-05
9.01012e-05
9.05235e-05
9.13006e-05
9.00094e-05
9.10252e-05
9.09454e-05
9.10023e-05
8.92587e-05
9.07863e-05
8.99522e-05
9.09831e-05
9.12942e-05
8.90732e-05
9.23994e-05
9.11498e-05
9.17604e-05
9.08266e-05
9.23754e-05
9.04474e-05
8.98713e-05
9.17682e-05
9.12724e-05
8.83353e-05
9.09993e-05
9.16677e-05
9.3437e-05
9.17092e-05
9.21607e-05
8.88087e-05
9.06959e-05
9.09317e-05
9.1116e-05
9.27427e-05
8.98512e-05
9.1572e-05
9.13194e-05
9.08503e-05
9.08053e-05
9.149e-05
8.87613e-05
8.95176e-05
9.15695e-05
9.0878e-05
9.08064e-05
9.25416e-05
8.95068e-05
9.02243e-05
9.00185e-05
9.08832e-05
9.16349e-05
9.11587e-05
9.19261e-05
9.19171e-05
9.25889e-05
9.00093e-05
9.19468e-05
9.09677e-05
8.999e-05
9.15713e-05
8.87004e-05
8.9171e-05
8.99262e-05
9.07058e-05
9.13169e-05
9.21666e-05
9.18055e-05
9.09853e-05
9.04425e-05
8.88439e-05
8.97222e-05
9.14774e-05
9.09226e-05
9.06666e-05
8.97191e-05
9.23462e-05
9.15228e-05
8.99698e-05
9.05414e-05
9.03998e-05
9.00627e-05
9.11628e-05
8.98587e-05
9.17828e-05
8.97685e-05
8.99211e-05
9.08787e-05
9.14773e-05
9.03287e-05
8.93914e-05
8.99966e-05
9.15891e-05
9.0357e-05
8.90972e-05
9.24322e-05
9.18966e-05
9.15188e-05
9.00607e-05
8.82127e-05
9.1163e-05
9.10279e-05
8.89531e-05
9.33859e-05
8.80939e-05
9.27904e-05
9.10905e-05
9.18359e-05
9.12493e-05
8.34773e-05
9.00947e-05
8.90131e-05
8.80291e-05
9.19256e-05
8.87015e-05
8.68227e-05
9.09651e-05
8.97841e-05
8.65482e-05
8.91431e-05
9.12601e-05
9.13705e-05
9.06481e-05
8.74442e-05
9.05807e-05
9.20261e-05
8.99276e-05
9.08551e-05
9.02299e-05
9.10935e-05
9.00739e-05
8.85715e-05
8.98484e-05
9.1836e-05
9.14342e-05
8.80277e-05
8.99626e-05
8.98287e-05
9.21427e-05
9.01013e-05
8.97393e-05
0.00450794
9.46961e-05
9.20767e-05
0.0284496
8.94176e-05
9.01605e-05
9.03407e-05
9.00182e-05
8.9699e-05
8.84358e-05
9.03004e-05
9.0855e-05
8.84869e-05
8.97918e-05
9.1894e-05
8.1159e-05
9.04011e-05
9.20349e-05
9.03836e-05
9.24218e-05
9.12844e-05
9.03426e-05
9.02516e-05
8.99424e-05
9.06675e-05
9.0622e-05
9.00245e-05
8.80686e-05
9.12025e-05
9.03438e-05
9.22097e-05
9.15503e-05
9.15281e-05
9.11733e-05
9.04806e-05
9.01212e-05
9.03972e-05
8.99853e-05
8.85569e-05
9.06811e-05
9.04274e-05
9.04052e-05
9.05638e-05
9.1614e-05
9.17162e-05
9.06975e-05
8.69396e-05
9.11682e-05
8.9691e-05
9.08284e-05
9.06884e-05
8.65888e-05
9.10207e-05
8.70204e-05
9.02069e-05
9.01142e-05
8.67054e-05
9.03949e-05
9.03841e-05
8.99582e-05
9.08225e-05
9.17977e-05
9.14766e-05
9.20993e-05
8.98253e-05
9.06664e-05
9.10487e-05
9.26226e-05
9.21538e-05
9.12059e-05
8.98767e-05
9.00086e-05
9.14358e-05
9.17946e-05
9.20807e-05
9.15107e-05
8.95597e-05
9.17196e-05
9.05071e-05
9.04227e-05
9.20513e-05
8.89035e-05
9.08832e-05
8.85689e-05
9.06843e-05
8.97358e-05
8.84309e-05
9.10775e-05
9.00493e-05
9.08793e-05
9.12633e-05
8.94514e-05
8.8689e-05
9.04464e-05
8.93776e-05
8.9169e-05
8.84718e-05
9.16025e-05
8.87008e-05
9.0197e-05
8.86953e-05
8.76153e-05
8.96831e-05
8.66956e-05
9.04108e-05
9.08811e-05
9.02859e-05
8.95423e-05
9.27319e-05
9.16705e-05
9.16235e-05
8.8898e-05
9.0815e-05
8.93013e-05
9.20677e-05
9.24949e-05
8.78915e-05
8.95817e-05
9.1004e-05
8.69905e-05
8.69571e-05
8.79299e-05
9.11753e-05
9.07168e-05
9.09487e-05
8.98851e-05
9.08688e-05
9.00624e-05
8.78694e-05
9.11716e-05
8.81125e-05
9.07909e-05
9.00658e-05
8.97735e-05
9.21296e-05
9.05452e-05
9.02338e-05
8.91448e-05
8.71303e-05
9.19859e-05
9.05965e-05
8.81604e-05
9.16464e-05
9.0583e-05
8.82433e-05
8.82375e-05
8.79263e-05
8.70603e-05
9.04434e-05
8.96217e-05
8.97766e-05
9.22527e-05
9.10808e-05
9.18316e-05
8.4311e-05
9.01604e-05
8.93354e-05
9.17777e-05
9.01058e-05
9.08227e-05
8.77166e-05
9.09381e-05
9.05988e-05
8.98262e-05
9.25798e-05
9.09005e-05
9.04946e-05
9.05033e-05
9.14524e-05
8.91805e-05
8.82246e-05
9.20544e-05
9.09756e-05
9.05813e-05
9.10517e-05
9.13524e-05
8.80059e-05
9.02325e-05
8.99078e-05
9.10767e-05
8.70214e-05
9.04529e-05
9.08943e-05
9.13983e-05
9.15387e-05
9.07924e-05
8.60425e-05
8.89504e-05
9.14156e-05
9.14976e-05
9.22466e-05
8.75855e-05
9.14753e-05
8.79874e-05
9.02739e-05
8.88554e-05
9.06727e-05
9.01583e-05
8.79579e-05
9.12165e-05
8.99477e-05
8.81096e-05
8.97161e-05
9.04261e-05
8.99655e-05
9.19661e-05
8.94286e-05
8.90186e-05
8.95641e-05
9.08853e-05
9.07655e-05
9.02047e-05
9.02877e-05
9.05175e-05
9.08644e-05
9.00927e-05
8.87884e-05
9.00619e-05
9.15632e-05
9.10576e-05
8.72065e-05
8.78454e-05
8.903e-05
9.05517e-05
9.01246e-05
8.92344e-05
9.14112e-05
8.94198e-05
9.15301e-05
8.67274e-05
9.12965e-05
8.89709e-05
9.10998e-05
9.12522e-05
8.90947e-05
8.98158e-05
9.23966e-05
8.97068e-05
9.25743e-05
9.05365e-05
8.68373e-05
9.13036e-05
9.17891e-05
9.08398e-05
8.9506e-05
8.97937e-05
8.77172e-05
9.15403e-05
8.85518e-05
8.80023e-05
9.04682e-05
8.92384e-05
8.72295e-05
9.01229e-05
9.03215e-05
8.81107e-05
8.92205e-05
8.57762e-05
8.68545e-05
8.68836e-05
8.87819e-05
9.03181e-05
9.08348e-05
9.07957e-05
8.86807e-05
9.0616e-05
8.99987e-05
9.05713e-05
9.24899e-05
9.19815e-05
9.11821e-05
9.08326e-05
8.97208e-05
8.86452e-05
9.10033e-05
9.03812e-05
9.21556e-05
9.18213e-05
9.03951e-05
8.98335e-05
9.06971e-05
8.83096e-05
9.04551e-05
9.04665e-05
9.09606e-05
8.65866e-05
9.01408e-05
8.95716e-05
9.08308e-05
9.11136e-05
9.00927e-05
9.00026e-05
8.8977e-05
8.97797e-05
9.05015e-05
8.90299e-05
9.05491e-05
8.91606e-05
9.20496e-05
8.94485e-05
9.03004e-05
9.13399e-05
9.14252e-05
9.06886e-05
9.29213e-05
8.9419e-05
9.06647e-05
8.98381e-05
8.98005e-05
8.77413e-05
8.78852e-05
9.0642e-05
8.71685e-05
8.75914e-05
9.07993e-05
9.17393e-05
9.17381e-05
8.81178e-05
9.23609e-05
9.145e-05
9.15847e-05
9.02837e-05
8.9639e-05
9.11272e-05
8.94957e-05
8.96613e-05
9.16219e-05
9.04874e-05
9.23649e-05
9.06713e-05
9.09533e-05
9.01362e-05
9.15818e-05
9.03941e-05
9.00228e-05
9.14332e-05
9.0585e-05
9.04009e-05
9.05521e-05
9.04648e-05
9.05879e-05
9.05098e-05
8.98143e-05
8.62898e-05
8.86547e-05
9.18513e-05
8.95414e-05
9.11149e-05
9.17094e-05
9.01274e-05
9.04681e-05
8.94719e-05
9.12692e-05
8.97923e-05
9.0847e-05
9.13968e-05
9.08243e-05
9.11753e-05
9.04398e-05
8.72963e-05
8.93594e-05
9.0676e-05
8.73413e-05
9.0892e-05
9.05113e-05
8.85582e-05
8.9432e-05
9.15801e-05
9.14246e-05
9.2826e-05
9.03561e-05
9.24165e-05
8.3819e-05
8.74213e-05
9.10404e-05
9.05757e-05
8.98646e-05
9.07008e-05
9.154e-05
9.0162e-05
8.71009e-05
9.13033e-05
9.24191e-05
9.13723e-05
9.22485e-05
9.04293e-05
9.10114e-05
9.07812e-05
9.14325e-05
9.11956e-05
9.1079e-05
9.13894e-05
9.10978e-05
9.12146e-05
9.03137e-05
9.10321e-05
8.99617e-05
9.0809e-05
9.12226e-05
9.04704e-05
8.64425e-05
8.81759e-05
9.0013e-05
9.10835e-05
9.00627e-05
9.08019e-05
9.0464e-05
0.000112037
8.57085e-05
8.96674e-05
9.11138e-05
8.8465e-05
8.99669e-05
9.98264e-05
8.9353e-05
9.05071e-05
9.24081e-05
8.72715e-05
8.91028e-05
8.70132e-05
8.95609e-05
9.18427e-05
9.16113e-05
8.94376e-05
8.85928e-05
9.03573e-05
9.25512e-05
9.15271e-05
9.09486e-05
9.18801e-05
8.89175e-05
9.09272e-05
9.31209e-05
8.72107e-05
9.09748e-05
9.01242e-05
9.25504e-05
8.88476e-05
9.0322e-05
8.81126e-05
0.000126862
9.14613e-05
9.0964e-05
9.25053e-05
9.0098e-05
9.02287e-05
9.09005e-05
9.15364e-05
9.05701e-05
8.83876e-05
9.11092e-05
9.01138e-05
9.01583e-05
8.95949e-05
9.08208e-05
9.05495e-05
8.95198e-05
8.86507e-05
9.10467e-05
8.87528e-05
9.14381e-05
9.22611e-05
9.2103e-05
9.07001e-05
9.08375e-05
9.06442e-05
9.21293e-05
9.07465e-05
9.07257e-05
9.07133e-05
8.84198e-05
9.02103e-05
9.09212e-05
8.99129e-05
8.98443e-05
9.07655e-05
8.95365e-05
8.99674e-05
8.94817e-05
8.83858e-05
9.00778e-05
9.27018e-05
8.81774e-05
9.00316e-05
8.95069e-05
9.04341e-05
9.16293e-05
9.16445e-05
9.11347e-05
8.97237e-05
9.05316e-05
8.99332e-05
8.96174e-05
9.01448e-05
8.98006e-05
8.94226e-05
9.06705e-05
9.12045e-05
8.98832e-05
8.93458e-05
8.94921e-05
9.02672e-05
9.13549e-05
8.92178e-05
8.97441e-05
8.93432e-05
8.98802e-05
9.02173e-05
8.90532e-05
9.01563e-05
9.08558e-05
8.85098e-05
8.98734e-05
9.15713e-05
9.15323e-05
8.99548e-05
9.08055e-05
8.91024e-05
8.54856e-05
9.21013e-05
8.94005e-05
9.04741e-05
8.95139e-05
9.04818e-05
9.23575e-05
9.08792e-05
9.18986e-05
9.23892e-05
9.06042e-05
9.01444e-05
9.08048e-05
8.90063e-05
9.01577e-05
8.91775e-05
8.83622e-05
8.81058e-05
9.13043e-05
9.02033e-05
9.04162e-05
9.15999e-05
9.14195e-05
8.85555e-05
8.97894e-05
8.93142e-05
8.84817e-05
9.0088e-05
9.1187e-05
8.97991e-05
8.99255e-05
9.02209e-05
9.05808e-05
9.07964e-05
8.87836e-05
9.0076e-05
9.13653e-05
8.99073e-05
9.05543e-05
9.07153e-05
9.07785e-05
8.81526e-05
9.02775e-05
9.23303e-05
8.96082e-05
8.84719e-05
8.96206e-05
9.03942e-05
8.88972e-05
9.07628e-05
9.00285e-05
9.09907e-05
8.99361e-05
8.85428e-05
9.00792e-05
9.07137e-05
8.50177e-05
8.96168e-05
8.99598e-05
8.99202e-05
8.89767e-05
9.17535e-05
9.03357e-05
9.07751e-05
9.05415e-05
8.9772e-05
9.21333e-05
8.97294e-05
8.97495e-05
8.90976e-05
9.08177e-05
8.76253e-05
9.21961e-05
8.96654e-05
9.10013e-05
8.83942e-05
9.08738e-05
8.83256e-05
8.93507e-05
9.15614e-05
9.04749e-05
9.06362e-05
9.08863e-05
8.8542e-05
8.92243e-05
9.23738e-05
8.92117e-05
8.82313e-05
8.98885e-05
9.09715e-05
9.06953e-05
9.05645e-05
9.0867e-05
9.07776e-05
9.06388e-05
8.99642e-05
9.11238e-05
9.06417e-05
9.19843e-05
9.02832e-05
9.06991e-05
9.08442e-05
8.98318e-05
9.10455e-05
9.0779e-05
9.11868e-05
9.01195e-05
9.12725e-05
9.0544e-05
9.06824e-05
9.15147e-05
8.99814e-05
9.01318e-05
9.07421e-05
9.31343e-05
8.87576e-05
9.11321e-05
9.18574e-05
9.24533e-05
9.0835e-05
9.18186e-05
9.15923e-05
9.13354e-05
9.031e-05
9.12521e-05
8.67967e-05
9.24525e-05
9.18476e-05
9.1251e-05
9.00965e-05
9.08336e-05
9.1951e-05
8.87931e-05
9.14291e-05
8.61667e-05
9.12375e-05
9.15924e-05
8.83022e-05
9.0301e-05
8.95574e-05
9.25318e-05
8.9924e-05
8.99643e-05
8.39493e-05
8.35278e-05
9.13201e-05
8.80611e-05
8.50648e-05
8.95642e-05
8.90155e-05
8.85191e-05
9.0514e-05
8.36768e-05
9.0467e-05
9.20626e-05
9.19869e-05
9.14016e-05
8.56959e-05
9.0317e-05
8.88482e-05
9.15042e-05
8.9463e-05
9.30008e-05
8.87837e-05
9.02786e-05
9.1544e-05
8.79068e-05
8.95833e-05
8.89615e-05
8.86459e-05
8.99151e-05
8.84673e-05
9.07954e-05
9.22304e-05
9.23263e-05
8.84449e-05
8.92472e-05
8.89299e-05
9.115e-05
8.71274e-05
8.82985e-05
9.03923e-05
9.07198e-05
9.13345e-05
9.18565e-05
9.0235e-05
9.28183e-05
9.05793e-05
9.1221e-05
9.14169e-05
9.02936e-05
9.04651e-05
9.14562e-05
8.96734e-05
9.02649e-05
8.94741e-05
9.02527e-05
9.07083e-05
9.22339e-05
8.79444e-05
9.13542e-05
8.96729e-05
8.78761e-05
9.01586e-05
8.80573e-05
8.77109e-05
9.05219e-05
8.9885e-05
8.80156e-05
9.0182e-05
8.9805e-05
9.07337e-05
8.78878e-05
9.12157e-05
9.08622e-05
8.83076e-05
9.15932e-05
9.10752e-05
8.95457e-05
9.16668e-05
9.10396e-05
8.84831e-05
9.15706e-05
8.99974e-05
8.80585e-05
9.0276e-05
9.13984e-05
9.00198e-05
8.803e-05
9.16492e-05
9.10391e-05
9.08468e-05
9.13208e-05
9.08334e-05
9.08376e-05
9.17659e-05
8.91751e-05
9.21471e-05
9.10597e-05
8.94154e-05
9.19683e-05
9.23653e-05
9.11329e-05
9.13622e-05
9.03619e-05
9.14983e-05
8.99821e-05
9.14222e-05
8.88373e-05
9.04123e-05
9.09569e-05
9.09849e-05
9.10003e-05
9.10254e-05
9.16109e-05
9.11186e-05
8.79277e-05
9.15303e-05
9.1549e-05
9.30862e-05
9.06358e-05
9.00164e-05
9.17009e-05
8.47309e-05
8.99554e-05
8.98173e-05
9.09918e-05
8.79032e-05
9.10087e-05
9.21341e-05
9.00897e-05
9.08176e-05
9.1629e-05
8.63507e-05
9.03522e-05
9.07994e-05
9.09342e-05
9.0402e-05
9.25733e-05
9.21301e-05
8.62132e-05
9.28745e-05
9.18884e-05
8.5822e-05
9.02161e-05
9.15173e-05
8.52812e-05
9.08623e-05
9.01773e-05
9.18392e-05
9.0939e-05
8.92895e-05
9.02336e-05
8.57713e-05
9.12815e-05
9.09839e-05
8.56295e-05
9.22307e-05
9.11664e-05
8.68074e-05
9.13877e-05
9.10262e-05
9.25072e-05
9.0715e-05
9.09894e-05
9.09316e-05
9.03239e-05
8.76993e-05
9.15512e-05
9.13246e-05
8.77208e-05
9.12155e-05
9.11106e-05
8.71086e-05
8.98324e-05
9.02588e-05
8.98788e-05
9.07179e-05
9.06042e-05
9.04773e-05
9.22667e-05
9.012e-05
9.13321e-05
9.08853e-05
8.63381e-05
9.22154e-05
9.09327e-05
8.64222e-05
8.94487e-05
8.71385e-05
9.22618e-05
9.01127e-05
9.22147e-05
9.07795e-05
8.5603e-05
9.17969e-05
8.63642e-05
9.14738e-05
9.04096e-05
8.65678e-05
9.12921e-05
9.08892e-05
9.12279e-05
8.73e-05
9.16119e-05
9.08251e-05
8.61061e-05
8.9634e-05
9.03273e-05
8.72186e-05
8.64581e-05
9.03463e-05
9.22687e-05
8.84699e-05
9.03921e-05
8.59903e-05
8.99098e-05
9.33882e-05
9.1776e-05
8.79602e-05
9.12769e-05
8.88543e-05
8.66197e-05
9.18321e-05
9.06328e-05
9.15823e-05
8.64662e-05
9.13028e-05
9.12977e-05
9.10709e-05
9.1809e-05
9.08369e-05
9.15893e-05
8.58919e-05
9.03065e-05
9.23247e-05
8.73992e-05
8.69218e-05
9.06727e-05
9.03119e-05
9.01164e-05
9.15888e-05
9.4111e-05
8.54659e-05
9.00659e-05
8.91155e-05
9.07751e-05
8.67977e-05
9.21247e-05
0.000100528
9.06829e-05
0.00010536
9.05878e-05
8.66893e-05
8.70477e-05
9.05122e-05
9.11573e-05
9.11549e-05
9.09507e-05
8.75487e-05
9.17621e-05
9.11436e-05
9.15775e-05
9.03005e-05
9.03982e-05
9.25359e-05
9.24149e-05
9.14831e-05
9.11372e-05
8.79757e-05
9.21209e-05
9.15365e-05
9.17866e-05
9.15429e-05
8.60721e-05
8.5941e-05
8.98191e-05
9.05763e-05
8.99307e-05
9.07992e-05
8.92234e-05
9.04662e-05
8.97812e-05
8.79714e-05
8.81976e-05
8.96179e-05
8.73859e-05
9.0709e-05
9.01733e-05
9.0785e-05
8.80946e-05
9.03363e-05
9.09963e-05
9.00227e-05
9.10262e-05
9.11673e-05
9.04952e-05
8.71687e-05
9.14991e-05
9.08578e-05
8.98751e-05
9.2298e-05
8.66592e-05
9.05686e-05
9.11883e-05
9.09195e-05
8.95493e-05
9.09755e-05
9.02698e-05
9.01651e-05
8.79159e-05
9.01793e-05
9.17545e-05
9.13736e-05
8.87512e-05
8.75568e-05
9.0362e-05
8.6753e-05
8.89891e-05
9.15908e-05
9.21114e-05
8.95148e-05
9.23846e-05
9.08792e-05
9.09104e-05
9.11468e-05
9.25704e-05
9.21292e-05
8.93167e-05
9.00142e-05
9.14527e-05
8.93936e-05
8.69265e-05
9.1592e-05
9.17046e-05
9.24506e-05
8.98056e-05
9.10081e-05
9.17871e-05
9.02521e-05
9.04786e-05
9.07261e-05
9.06548e-05
9.14089e-05
8.9639e-05
8.85699e-05
9.20304e-05
9.14637e-05
9.22584e-05
8.73989e-05
9.0727e-05
9.29121e-05
9.04636e-05
8.77108e-05
8.90326e-05
8.92465e-05
9.048e-05
8.73157e-05
8.89392e-05
8.99105e-05
8.67188e-05
9.10395e-05
9.15499e-05