/*--------------------------------*- C++ -*----------------------------------*\
| =========                 |                                                 |
| \\      /  F ield         | OpenFOAM: The Open Source CFD Toolbox           |
|  \\    /   O peration     | Version:  v2012                                 |
|   \\  /    A nd           | Website:  www.openfoam.com                      |
|    \\/     M anipulation  |                                                 |
\*---------------------------------------------------------------------------*/
FoamFile
{
    version     2.0;
    format      ascii;
    class       volScalarField;
    location    "1";
    object      nut;
}
// * * * * * * * * * * * * * * * * * * * * * * * * * * * * * * * * * * * * * //

dimensions      [0 2 -1 0 0 0 0];


internalField   nonuniform List<scalar> 
108993
(
9.77364e-05
9.28454e-05
7.27629e-05
0.000101378
0.000101585
5.72026e-05
8.8783e-05
8.15577e-05
0.000100516
9.37963e-05
0.000106481
0.000105642
8.42701e-05
8.51761e-05
9.03026e-05
7.61005e-05
7.98421e-05
9.11911e-05
8.57747e-05
9.13804e-05
7.43688e-05
9.60526e-05
8.18566e-05
0.000100682
9.82563e-05
9.13886e-05
8.88667e-05
9.74044e-05
0.000108159
6.62904e-05
0.000111932
0.000104537
0.000101111
0.000102887
8.61987e-05
0.000101608
9.00049e-05
0.000100555
8.25998e-05
9.01685e-05
0.000113689
0.000107904
9.29624e-05
0.000100656
9.09517e-05
6.76786e-05
0.000101312
8.91228e-05
0.000116617
9.93757e-05
0.000101712
0.000112076
9.48307e-05
9.78749e-05
0.000103947
0.000107157
9.19104e-05
9.50365e-05
8.06856e-05
0.000108899
9.69867e-05
9.86872e-05
9.62206e-05
8.61125e-05
9.31432e-05
0.000108626
7.96097e-05
0.000104753
0.000112887
9.99159e-05
9.44398e-05
9.08829e-05
0.000100444
9.73693e-05
8.79641e-05
0.000115907
8.17419e-05
0.000115542
9.67379e-05
9.58381e-05
9.24637e-05
8.77092e-05
8.51502e-05
8.35246e-05
0.000108322
9.11421e-05
0.000108585
8.84305e-05
9.30895e-05
0.000105229
9.44173e-05
8.64591e-05
0.000104945
7.49764e-05
0.00010142
9.99078e-05
8.25105e-05
7.19338e-05
8.21283e-05
8.40145e-05
0.000103303
0.000115534
0.000112805
0.000108255
7.71232e-05
0.000103612
0.000108266
0.000110284
0.000106064
0.000108895
8.49362e-05
9.35983e-05
9.23252e-05
9.83713e-05
0.000100157
8.55471e-05
8.70729e-05
8.15503e-05
0.00011265
9.82944e-05
9.54735e-05
9.04802e-05
9.12695e-05
6.68838e-05
8.94221e-05
9.68351e-05
0.000100312
8.81644e-05
8.23185e-05
0.000103779
8.90402e-05
0.000105123
0.00011028
8.13922e-05
9.64677e-05
8.24853e-05
9.19636e-05
8.71176e-05
8.58359e-05
9.24778e-05
8.54921e-05
8.25418e-05
9.24693e-05
9.35829e-05
0.000102897
9.91906e-05
8.15144e-05
8.03084e-05
9.29293e-05
9.44177e-05
9.50528e-05
8.03495e-05
7.99042e-05
0.000103255
9.88339e-05
9.43325e-05
0.000114882
0.000101571
0.000106228
9.68373e-05
0.000104831
0.000106198
0.000501314
9.10997e-05
9.31137e-05
0.000103005
9.3637e-05
8.14145e-05
8.03405e-05
0.00011147
0.000103057
0.000102781
0.000102922
8.65007e-05
9.40491e-05
9.17276e-05
8.71012e-05
8.70441e-05
0.000104722
8.48212e-05
8.77392e-05
8.21198e-05
9.04863e-05
3.30479e-05
0.000113162
9.9495e-05
9.19259e-05
9.90918e-05
9.92805e-05
3.679e-05
9.91541e-05
9.90384e-05
8.69748e-05
9.77942e-05
0.000105215
9.39126e-05
0.000110057
0.000100538
0.000107383
4.07537e-05
0.000104569
0.0001041
7.40543e-05
8.39551e-05
0.000102022
7.31831e-05
8.89386e-05
9.99227e-05
9.41512e-05
7.88572e-05
8.41207e-05
9.10632e-05
8.19299e-05
8.99168e-05
7.86033e-05
7.00898e-05
8.75481e-05
9.79805e-05
9.28861e-05
0.000117738
9.69546e-05
8.53953e-05
0.000103463
9.30824e-05
8.76265e-05
7.67815e-05
8.78415e-05
0.000108536
0.00010306
8.12108e-05
5.09435e-05
9.9171e-05
8.23459e-05
8.15821e-05
9.11796e-05
8.03189e-05
0.00010266
9.00093e-05
9.1789e-05
9.05404e-05
6.97129e-05
0.00010425
6.57624e-05
9.68136e-05
0.000107382
9.18412e-05
9.47365e-05
9.42495e-05
9.88874e-05
0.000107589
0.00042137
9.70247e-05
9.39891e-05
0.000103673
9.95067e-05
9.62367e-05
9.77366e-05
9.49403e-05
0.000110898
6.53262e-05
9.72542e-05
8.33392e-05
0.000108424
8.11595e-05
7.42725e-05
9.6785e-05
0.000107737
0.000112557
6.50129e-05
9.57712e-05
7.1034e-05
7.70759e-05
9.93596e-05
8.73842e-05
9.13003e-05
9.16019e-05
0.000104757
0.000111748
0.000106955
9.63837e-05
0.000104119
7.72475e-05
6.72076e-05
8.86795e-05
0.00010246
9.8194e-05
7.66879e-05
0.00010342
0.000110655
5.83255e-05
9.46987e-05
8.2693e-05
0.000106664
0.000102413
9.76216e-05
8.1877e-05
0.000113018
9.56137e-05
8.19491e-05
5.86251e-05
8.40661e-05
7.98791e-05
0.000104584
7.77118e-05
0.00010029
8.03534e-05
7.22339e-05
8.50345e-05
7.54453e-05
0.000106743
0.000105247
0.00010486
8.4657e-05
9.23737e-05
0.000106621
8.58611e-05
7.00928e-05
8.75839e-05
9.14633e-05
0.000113457
9.24752e-05
7.1703e-05
7.16334e-05
6.82759e-05
7.95094e-05
9.09637e-05
9.07231e-05
0.000109579
9.04984e-05
0.000109668
0.000116062
0.000113468
6.35501e-05
9.25348e-05
9.27667e-05
9.06778e-05
9.83277e-05
0.000101346
0.000100329
8.88962e-05
9.40633e-05
9.20727e-05
8.88545e-05
0.000103441
8.93996e-05
9.25767e-05
8.78892e-05
8.73651e-05
8.61516e-05
8.25358e-05
0.000101215
6.92843e-05
6.91744e-05
9.168e-05
9.04295e-05
9.62825e-05
8.79284e-05
6.44259e-05
9.0343e-05
5.81274e-05
0.00011647
8.81198e-05
7.62e-05
9.24867e-05
9.86064e-05
0.000104981
0.000103666
8.8171e-05
9.34331e-05
0.000102007
8.08325e-05
0.000103489
8.44207e-05
9.5909e-05
0.000118468
0.00010073
0.000107098
0.000128861
7.91027e-05
0.000103043
7.38066e-05
7.71306e-05
0.000107898
8.20327e-05
9.29138e-05
6.65375e-05
8.92451e-05
8.00425e-05
9.25184e-05
0.000107604
7.67709e-05
7.00055e-05
7.57344e-05
8.46295e-05
8.12301e-05
0.00013208
8.75333e-05
9.776e-05
9.17971e-05
9.52549e-05
0.000129798
8.96147e-05
8.00753e-05
9.83649e-05
0.000100992
7.09036e-05
8.82279e-05
6.28994e-05
9.02461e-05
7.99473e-05
9.0133e-05
8.69662e-05
7.93148e-05
8.61927e-05
9.92212e-05
0.000108763
9.85611e-05
8.88637e-05
5.84313e-05
9.06843e-05
9.51887e-05
9.443e-05
7.20383e-05
7.55163e-05
0.000104362
6.28667e-05
0.000102481
7.06334e-05
8.08169e-05
6.60382e-05
7.92747e-05
9.47372e-05
8.91148e-05
9.02073e-05
9.0543e-05
9.82369e-05
8.78125e-05
0.00010142
0.000106648
8.89185e-05
9.23943e-05
9.07759e-05
0.00011119
6.68318e-05
0.00010162
0.000106967
8.62524e-05
0.000106323
9.23365e-05
7.21209e-05
9.4853e-05
9.71205e-05
0.000105726
0.000123404
0.000115877
9.57604e-05
9.58544e-05
9.2231e-05
0.000114728
8.58859e-05
5.97247e-05
9.47294e-05
6.30166e-05
9.84458e-05
9.52867e-05
7.48582e-05
8.06701e-05
7.65439e-05
7.0465e-05
8.55814e-05
6.37067e-05
0.000102438
0.000100784
9.20691e-05
0.000108782
8.55437e-05
8.84173e-05
0.000105498
8.60112e-05
0.000103229
8.74446e-05
0.000113131
0.000108456
0.000103182
6.73627e-05
8.52653e-05
8.51594e-05
7.7254e-05
8.97185e-05
0.000107379
9.65984e-05
0.000105875
7.98835e-05
8.11599e-05
9.31474e-05
6.81733e-05
8.08024e-05
0.000103712
7.55341e-05
9.35185e-05
7.84284e-05
9.71455e-05
7.77004e-05
9.74938e-05
0.000102923
0.000102565
9.33732e-05
8.68967e-05
8.55341e-05
9.53639e-05
0.000102049
8.92729e-05
0.000105717
0.000109599
9.65035e-05
9.04557e-05
8.30028e-05
9.56797e-05
0.000110957
0.000115302
7.08791e-05
6.94756e-05
9.83514e-05
0.000101836
0.000110501
9.06937e-05
9.17772e-05
0.000101664
9.25832e-05
0.000109073
7.76786e-05
9.00064e-05
8.42919e-05
8.87321e-05
9.0805e-05
0.000109433
8.937e-05
0.000101706
0.000105951
8.88316e-05
7.76244e-05
9.67182e-05
9.41999e-05
0.000109636
0.000109125
9.29094e-05
7.82017e-05
8.57704e-05
0.000107397
7.774e-05
8.48531e-05
8.13581e-05
8.06501e-05
0.000115607
0.000106965
7.79318e-05
0.000126142
0.000110987
8.91729e-05
8.22007e-05
9.94359e-05
0.000451993
7.99977e-05
0.000103343
6.79691e-05
8.74703e-05
0.000102024
9.75365e-05
0.000126701
0.000106369
0.000101987
7.48478e-05
7.24291e-05
7.16079e-05
9.64091e-05
9.69297e-05
0.000112816
6.93414e-05
7.73212e-05
9.73854e-05
0.000109439
8.95229e-05
0.000110747
0.000118224
0.000102383
8.32242e-05
8.50589e-05
7.18345e-05
0.000108086
7.13142e-05
0.000114617
7.4161e-05
9.13514e-05
9.55663e-05
8.2525e-05
8.76731e-05
0.000118441
7.58474e-05
0.000109936
9.17732e-05
0.000101052
0.000109253
0.000104694
8.62739e-05
8.38187e-05
6.90586e-05
0.000100926
7.34445e-05
9.51161e-05
0.000101338
8.91741e-05
0.000100858
0.000112343
9.3578e-05
0.000118212
9.04283e-05
0.00010235
7.34493e-05
8.3366e-05
8.60874e-05
0.000113279
9.60753e-05
0.000102293
0.000103492
0.000108211
0.000107723
0.000115429
0.000100107
8.53894e-05
9.98892e-05
0.000103175
9.55249e-05
0.000101508
8.20684e-05
9.2487e-05
8.31245e-05
7.49921e-05
0.000110182
9.03326e-05
0.000104041
9.17895e-05
0.000102066
8.98668e-05
8.60605e-05
8.25423e-05
8.72773e-05
9.65569e-05
8.107e-05
8.78987e-05
9.27627e-05
9.89417e-05
8.2424e-05
9.12639e-05
6.16168e-05
0.000107818
8.77234e-05
7.26266e-05
5.40924e-05
9.29188e-05
5.83369e-05
4.69207e-05
9.77884e-05
7.49177e-05
9.42734e-05
8.45315e-05
9.77949e-05
7.789e-05
0.000104842
7.90358e-05
8.71813e-05
0.000113646
0.000115694
0.000109832
6.97644e-05
6.41582e-05
0.000113468
8.60088e-05
6.42345e-05
9.81637e-05
0.000107518
9.01317e-05
0.000105177
9.38832e-05
9.99791e-05
6.24803e-05
0.000130414
0.000113375
6.19941e-05
6.43593e-05
9.35883e-05
8.80148e-05
9.55054e-05
0.000102308
7.93825e-05
9.73835e-05
7.94754e-05
7.66775e-05
8.26026e-05
7.77807e-05
9.41858e-05
9.84704e-05
9.46985e-05
5.85417e-05
6.24367e-05
0.000119839
6.51461e-05
0.00010092
8.50273e-05
0.000101626
8.62878e-05
9.93575e-05
0.000102117
9.79688e-05
0.000106654
9.12882e-05
7.67291e-05
8.3811e-05
9.70484e-05
7.39509e-05
0.000105146
0.000106401
0.000101215
0.000121801
8.43925e-05
8.60458e-05
0.000101259
0.000105247
7.80625e-05
8.31428e-05
0.000102528
9.33757e-05
9.73921e-05
7.82502e-05
8.71104e-05
0.000103281
7.92484e-05
0.000112836
8.07815e-05
0.000101371
0.000116077
8.59085e-05
7.38741e-05
0.000100704
9.00137e-05
0.000105401
0.000108103
0.000111972
0.000123825
0.000102557
0.000132778
0.000104784
7.24929e-05
8.28763e-05
0.000117823
7.47109e-05
8.55785e-05
7.79735e-05
5.40029e-05
0.000116796
8.76684e-05
9.32367e-05
9.3295e-05
0.000119417
9.42483e-05
6.59272e-05
0.000104988
0.000103826
8.16028e-05
0.000101146
0.000101317
8.91168e-05
9.62534e-05
0.00010076
0.000105065
9.09263e-05
0.000116539
9.47401e-05
8.83763e-05
7.02793e-05
8.9273e-05
6.20617e-05
7.50748e-05
0.000101558
9.3444e-05
9.48121e-05
8.48683e-05
9.67612e-05
7.77587e-05
0.000100876
6.56756e-05
9.7272e-05
8.31028e-05
9.41899e-05
9.43062e-05
0.000108668
0.000120322
8.67929e-05
0.000107004
7.08068e-05
0.000105992
8.60561e-05
8.92883e-05
0.000106035
9.13711e-05
0.000101672
0.000108411
0.000101547
9.30201e-05
8.33819e-05
8.67135e-05
8.39774e-05
9.84251e-05
9.89285e-05
7.4314e-05
8.02267e-05
8.99574e-05
7.63791e-05
9.63989e-05
9.1657e-05
7.80861e-05
8.44051e-05
7.6853e-05
9.5448e-05
0.00010192
9.39645e-05
8.54612e-05
7.4859e-05
8.17244e-05
8.00347e-05
0.000116829
9.49794e-05
0.000101913
9.78532e-05
0.000120548
8.61498e-05
7.50985e-05
9.11197e-05
7.3237e-05
0.000115033
8.42267e-05
7.91186e-05
0.000109944
8.98852e-05
0.000115378
9.76332e-05
9.78609e-05
9.52858e-05
0.000105471
5.2643e-05
9.83988e-05
5.78031e-05
9.80814e-05
5.44691e-05
0.000102792
9.84954e-05
5.98745e-05
9.09848e-05
9.76083e-05
0.000121889
6.10491e-05
6.81663e-05
8.99561e-05
9.54583e-05
6.48927e-05
9.07846e-05
0.000104833
9.54693e-05
7.08923e-05
0.000106459
8.53235e-05
8.26787e-05
9.00834e-05
8.34364e-05
6.32071e-05
9.21295e-05
8.59079e-05
0.000104835
7.01778e-05
9.01228e-05
7.39709e-05
5.4012e-05
6.62674e-05
8.24549e-05
9.74002e-05
8.73227e-05
6.31839e-05
9.2429e-05
6.52816e-05
8.91423e-05
9.06133e-05
9.4799e-05
8.9349e-05
7.47019e-05
8.80807e-05
9.05547e-05
8.09732e-05
9.11582e-05
9.9727e-05
8.25248e-05
0.000120332
9.44654e-05
9.04927e-05
8.91332e-05
6.45065e-05
0.000107079
9.76189e-05
7.44874e-05
8.42166e-05
7.57395e-05
0.000107269
9.61441e-05
9.93264e-05
0.000126088
0.000110253
8.14334e-05
8.07108e-05
7.95208e-05
0.000100117
0.000112865
8.71575e-05
7.79473e-05
0.000106175
9.01054e-05
0.000109146
0.000101747
0.000108749
7.77045e-05
0.000119164
9.54278e-05
6.36067e-05
8.18473e-05
7.7646e-05
8.141e-05
0.000104461
0.000124039
8.47586e-05
9.01293e-05
8.31145e-05
0.000103275
6.18684e-05
7.89304e-05
8.85465e-05
8.07393e-05
8.93938e-05
9.74369e-05
7.96668e-05
7.16635e-05
8.12479e-05
0.000109155
9.31497e-05
9.88785e-05
0.000102398
8.11548e-05
9.9522e-05
9.0085e-05
9.41402e-05
8.81133e-05
9.15498e-05
6.89581e-05
0.000101408
8.56014e-05
8.63756e-05
8.41694e-05
0.000109409
6.83098e-05
8.61881e-05
0.00010514
9.91405e-05
9.29306e-05
9.12498e-05
7.13226e-05
9.55975e-05
7.31108e-05
9.61453e-05
7.19457e-05
7.67526e-05
0.000285903
0.000102389
9.9746e-05
7.5865e-05
8.68209e-05
8.54333e-05
8.84676e-05
7.60679e-05
9.06214e-05
9.99174e-05
9.94417e-05
8.89976e-05
0.000108102
9.2868e-05
7.96289e-05
0.000105859
9.7334e-05
7.89891e-05
8.62835e-05
7.49011e-05
8.85973e-05
7.33324e-05
0.000101024
7.59976e-05
8.95167e-05
8.08109e-05
9.13749e-05
8.41559e-05
9.74508e-05
0.000126962
9.29353e-05
8.52865e-05
7.74667e-05
8.66173e-05
9.51773e-05
9.51522e-05
0.00010596
5.48976e-05
9.8574e-05
9.89624e-05
8.7139e-05
8.53978e-05
9.75088e-05
7.08108e-05
7.45229e-05
8.97768e-05
9.48644e-05
9.43172e-05
0.000106217
0.000108396
9.53492e-05
9.31619e-05
0.000114372
8.97687e-05
0.000110051
0.00010598
0.000103789
0.00010504
0.000113079
0.000136862
0.000102737
9.8558e-05
0.000108981
9.07118e-05
8.11402e-05
9.79841e-05
9.89443e-05
0.000108309
9.6745e-05
8.28335e-05
7.96707e-05
8.73311e-05
8.9743e-05
8.83951e-05
9.44689e-05
9.0329e-05
0.000102809
9.54956e-05
6.69558e-05
9.7912e-05
9.4225e-05
8.68209e-05
7.00881e-05
0.000109026
7.58927e-05
9.01904e-05
9.47483e-05
0.000113321
0.00011945
8.92962e-05
8.8586e-05
8.00064e-05
8.30131e-05
8.35942e-05
0.000114478
8.06562e-05
0.000129869
0.00010936
0.000116032
7.50791e-05
6.38145e-05
9.17534e-05
7.83088e-05
8.9346e-05
9.57911e-05
8.26221e-05
8.03698e-05
0.000100111
0.000102265
0.000105135
7.74416e-05
0.000102511
9.22948e-05
8.12415e-05
9.36678e-05
0.000106699
0.000103793
6.61068e-05
0.000120386
0.000102601
7.83013e-05
8.92644e-05
9.51121e-05
9.76679e-05
0.000137014
0.000123749
9.62007e-05
9.00489e-05
0.000112731
8.04054e-05
7.53935e-05
8.28771e-05
0.000105882
7.95903e-05
0.000109144
9.19269e-05
6.31661e-05
7.50938e-05
0.000111548
0.000129059
7.3689e-05
9.97123e-05
0.000110973
9.10413e-05
8.94662e-05
9.46907e-05
6.64422e-05
8.80982e-05
6.07449e-05
0.000104119
0.000101773
8.66069e-05
0.000102607
7.50119e-05
9.522e-05
8.8777e-05
9.21087e-05
0.000102167
8.72546e-05
0.000103901
6.77059e-05
9.82302e-05
0.000112228
0.000105573
0.000103356
0.000104513
7.65204e-05
6.27116e-05
0.000101045
0.000116335
8.31596e-05
9.10733e-05
0.000103154
9.91918e-05
0.000104651
0.00011472
7.4272e-05
9.58128e-05
6.6332e-05
0.00010308
8.3386e-05
6.06475e-05
0.000105402
7.30509e-05
8.5148e-05
0.000113816
8.6186e-05
7.20882e-05
8.63969e-05
9.04246e-05
9.08663e-05
8.23673e-05
0.000110604
9.06414e-05
6.85238e-05
8.00614e-05
9.82456e-05
0.000105476
9.67274e-05
7.24699e-05
6.98622e-05
7.0708e-05
9.17389e-05
9.35186e-05
9.45457e-05
8.49258e-05
0.000116043
7.89119e-05
8.81981e-05
8.54614e-05
0.000101349
5.70468e-05
8.60921e-05
7.25822e-05
0.000113954
9.05761e-05
0.000109339
8.97435e-05
0.000102546
9.59732e-05
9.12557e-05
9.32486e-05
7.31799e-05
0.000123028
6.73961e-05
8.36366e-05
9.23218e-05
8.58775e-05
0.000100192
8.53841e-05
0.000102976
8.23706e-05
9.89709e-05
8.26941e-05
9.18708e-05
9.45691e-05
8.93379e-05
8.62905e-05
0.000102675
9.51421e-05
8.28753e-05
8.95666e-05
6.96454e-05
0.000101494
9.37674e-05
9.48409e-05
0.000110971
8.45001e-05
8.0033e-05
0.000104082
8.07288e-05
0.000102485
7.71537e-05
0.000122463
8.44937e-05
8.98598e-05
6.16336e-05
9.05084e-05
0.000130753
0.000120416
0.000112578
9.75977e-05
7.93147e-05
9.62301e-05
0.00012138
0.00011344
0.000112891
0.000104645
9.41257e-05
0.00010086
9.15531e-05
8.61246e-05
8.36378e-05
0.000100552
0.000106959
0.000105003
7.70004e-05
0.000103013
8.9731e-05
6.93783e-05
8.97771e-05
9.87852e-05
9.07013e-05
9.42454e-05
8.46709e-05
0.000106036
6.02292e-05
5.30323e-05
5.60188e-05
8.38276e-05
5.99386e-05
0.000107939
5.48963e-05
6.67104e-05
6.73001e-05
7.3975e-05
9.19329e-05
8.72469e-05
0.000112371
0.000103168
8.5004e-05
8.08898e-05
8.51719e-05
9.44012e-05
8.97158e-05
0.000110706
0.00011148
0.000115599
8.34561e-05
0.000109308
7.96163e-05
7.46388e-05
9.82657e-05
0.000100342
4.26392e-05
8.14301e-05
8.71207e-05
9.17374e-05
0.000100703
8.6125e-05
9.75525e-05
9.65006e-05
9.72006e-05
7.9558e-05
9.463e-05
8.5715e-05
9.66349e-05
0.000100673
7.78095e-05
0.000117363
9.90929e-05
0.000107478
9.47228e-05
0.000117043
9.06284e-05
8.41167e-05
0.000106899
9.70535e-05
7.22608e-05
9.75767e-05
0.000105923
9.21245e-05
9.41061e-05
0.000113133
7.57493e-05
9.33592e-05
9.65143e-05
9.85508e-05
0.000123762
8.46597e-05
0.000104676
0.000101543
9.45284e-05
9.26709e-05
0.000104055
7.53427e-05
8.17569e-05
0.000104959
9.56074e-05
9.46704e-05
0.000119475
8.13022e-05
8.82841e-05
8.65551e-05
9.56438e-05
0.000105582
9.93179e-05
0.000109861
0.000109515
0.000120991
8.59051e-05
0.000108726
9.53809e-05
8.57786e-05
0.000104418
7.50774e-05
6.7901e-05
8.35179e-05
9.34263e-05
0.000101069
0.000113481
0.000101886
9.70313e-05
9.06545e-05
7.56353e-05
8.18951e-05
0.00010392
9.61925e-05
9.21009e-05
8.40604e-05
0.000116522
0.000103778
8.55392e-05
9.17767e-05
9.00347e-05
8.70484e-05
9.90448e-05
8.49734e-05
0.000107548
8.36531e-05
8.56517e-05
9.55249e-05
0.000103029
8.94578e-05
8.02221e-05
8.61215e-05
0.000104801
8.96333e-05
7.81693e-05
0.000117714
0.000108924
0.000103351
8.6806e-05
7.13136e-05
9.9105e-05
9.75016e-05
7.68824e-05
9.51818e-05
7.00748e-05
0.000124638
9.84739e-05
0.000108492
0.000100247
4.73547e-05
8.74802e-05
7.75898e-05
6.98268e-05
0.000109708
7.44584e-05
6.21541e-05
9.66092e-05
8.40513e-05
6.06237e-05
7.8408e-05
0.000100095
0.000101737
9.33526e-05
6.62084e-05
9.2115e-05
0.000111318
8.52868e-05
9.51656e-05
8.83655e-05
9.8573e-05
8.67716e-05
7.36509e-05
8.47799e-05
0.000108492
0.000102377
6.97606e-05
8.5768e-05
8.45256e-05
0.000113296
8.70409e-05
8.37617e-05
0.000542095
8.70312e-05
0.000102198
0.00173864
8.05301e-05
8.73934e-05
8.96995e-05
8.62829e-05
8.34586e-05
7.29056e-05
8.91872e-05
9.53193e-05
7.30204e-05
8.43504e-05
0.000109538
3.90472e-05
9.03952e-05
0.000111451
8.13059e-05
0.000118109
0.000100961
8.98868e-05
8.85197e-05
8.54669e-05
9.2678e-05
9.26975e-05
8.64061e-05
7.0204e-05
9.98826e-05
9.0086e-05
0.000114085
0.000104518
0.000104264
9.98712e-05
9.11105e-05
8.75544e-05
9.0499e-05
8.60541e-05
7.39332e-05
9.33762e-05
8.99885e-05
9.05719e-05
9.21512e-05
0.000105134
0.000106548
9.35736e-05
6.33124e-05
9.91523e-05
8.31902e-05
9.52406e-05
9.35378e-05
6.11118e-05
9.74193e-05
6.31915e-05
8.82084e-05
8.72759e-05
6.12957e-05
9.05041e-05
9.01873e-05
8.52902e-05
9.4968e-05
0.000107553
0.000103588
0.000112672
8.46203e-05
9.2281e-05
9.77925e-05
0.000121323
0.000113598
9.97232e-05
8.30909e-05
8.65531e-05
0.000102478
0.000107989
0.000110797
0.000104157
8.17514e-05
0.000106324
9.16649e-05
9.0445e-05
0.000111921
7.61049e-05
9.57079e-05
7.35943e-05
9.34883e-05
8.32757e-05
7.2817e-05
9.79873e-05
8.65898e-05
9.57767e-05
0.000100128
8.13188e-05
7.4368e-05
9.09709e-05
8.05348e-05
7.85171e-05
7.27753e-05
0.000105491
7.45359e-05
8.8124e-05
7.45813e-05
6.72543e-05
8.31676e-05
6.10878e-05
9.03409e-05
9.57498e-05
8.91827e-05
8.19758e-05
0.000120531
9.91656e-05
0.000105308
7.65695e-05
9.49703e-05
7.9535e-05
0.000105925
0.000119319
6.91672e-05
8.24158e-05
9.68516e-05
6.31429e-05
6.3169e-05
6.92611e-05
9.93145e-05
9.36541e-05
9.66662e-05
8.4991e-05
9.57791e-05
8.67091e-05
6.88061e-05
9.9266e-05
7.0127e-05
9.46362e-05
8.68134e-05
8.42446e-05
0.000113139
9.20945e-05
8.85558e-05
7.82743e-05
6.40363e-05
0.00011063
9.25151e-05
7.06381e-05
0.000105918
9.23137e-05
7.11217e-05
7.12886e-05
6.84021e-05
6.34994e-05
9.06687e-05
8.22827e-05
8.39349e-05
0.000114837
9.81036e-05
0.000108363
5.06087e-05
8.74861e-05
8.00913e-05
0.000107684
8.6326e-05
9.49885e-05
6.79716e-05
9.65484e-05
9.22958e-05
8.41405e-05
0.000120352
9.64305e-05
9.13883e-05
9.14905e-05
0.000102842
7.85402e-05
7.10314e-05
0.000111608
9.67078e-05
9.21189e-05
9.76904e-05
0.00010114
6.98561e-05
8.78919e-05
8.52857e-05
9.84473e-05
6.36941e-05
8.96845e-05
9.62365e-05
0.00010221
0.000104224
9.47848e-05
5.82286e-05
7.66008e-05
0.000102528
0.000103681
0.000114631
6.68909e-05
0.000103642
6.84151e-05
8.16092e-05
7.59222e-05
9.32451e-05
8.77483e-05
6.84455e-05
0.000100035
8.62031e-05
7.02528e-05
8.32945e-05
9.0414e-05
8.57264e-05
0.000110572
8.08252e-05
7.72814e-05
8.18825e-05
9.59171e-05
9.40611e-05
8.61812e-05
8.93298e-05
9.1634e-05
9.55644e-05
8.67582e-05
7.50583e-05
8.68039e-05
0.000104362
9.76815e-05
6.48396e-05
6.86249e-05
7.73078e-05
9.19381e-05
8.79086e-05
7.88543e-05
0.000103308
8.04419e-05
0.000104429
6.20806e-05
0.000100957
7.63729e-05
9.79626e-05
0.00010017
7.80411e-05
8.45895e-05
0.000117574
8.31311e-05
0.000120627
9.19907e-05
6.28706e-05
0.000100932
0.000107646
9.5175e-05
8.10929e-05
8.41166e-05
6.81853e-05
0.000103786
7.00717e-05
6.94007e-05
9.11537e-05
7.99557e-05
6.45939e-05
8.73707e-05
8.95904e-05
7.04971e-05
7.8962e-05
5.66738e-05
6.26825e-05
6.30052e-05
7.55085e-05
8.89048e-05
9.5097e-05
9.50063e-05
7.42862e-05
9.28534e-05
8.58266e-05
9.1867e-05
0.000118368
0.000110632
9.92404e-05
9.518e-05
8.33017e-05
7.4475e-05
9.72187e-05
9.00845e-05
0.000113496
0.000108601
8.963e-05
8.41768e-05
9.34239e-05
6.84718e-05
9.07143e-05
9.13024e-05
9.65925e-05
6.14814e-05
8.75709e-05
8.17333e-05
9.50608e-05
9.84289e-05
8.73113e-05
8.48481e-05
7.67527e-05
8.3699e-05
9.12762e-05
7.75242e-05
9.18844e-05
7.84858e-05
0.000111605
8.00243e-05
8.93158e-05
0.000101584
0.000102565
9.3374e-05
9.16693e-05
8.04176e-05
9.34189e-05
8.45786e-05
8.37227e-05
6.81507e-05
6.89217e-05
9.26566e-05
6.31467e-05
6.71206e-05
9.49558e-05
0.000106835
0.000106656
7.06082e-05
0.000116551
9.35201e-05
0.000104631
8.87712e-05
8.2584e-05
9.87272e-05
8.12712e-05
8.36294e-05
0.000105278
9.10499e-05
0.000116742
9.30668e-05
9.58954e-05
8.72324e-05
0.000104662
9.01792e-05
8.65738e-05
0.000102554
9.22611e-05
9.04439e-05
9.17888e-05
9.0075e-05
9.20476e-05
9.14032e-05
8.39704e-05
5.93842e-05
7.43732e-05
0.00010828
8.15695e-05
9.74051e-05
0.000106844
8.70842e-05
8.93701e-05
8.11354e-05
0.000100716
8.42331e-05
9.51855e-05
0.000100498
9.47218e-05
9.29737e-05
9.05597e-05
6.52802e-05
8.0277e-05
9.37655e-05
6.56548e-05
9.55261e-05
9.14246e-05
7.3648e-05
8.08495e-05
0.000104351
0.000102547
0.000125735
8.956e-05
0.000118051
4.82845e-05
6.60259e-05
9.79656e-05
9.2288e-05
8.47473e-05
9.37711e-05
0.000104336
8.78355e-05
6.409e-05
0.000101443
0.000118255
0.000101953
0.000115074
9.03453e-05
9.72285e-05
9.38827e-05
0.000102904
9.95231e-05
9.74357e-05
0.000102337
9.84814e-05
9.97531e-05
8.93475e-05
9.76434e-05
8.55938e-05
9.5415e-05
0.00010008
9.10449e-05
6.02376e-05
7.10359e-05
8.63337e-05
9.8322e-05
8.69327e-05
9.48982e-05
9.06796e-05
0.000111659
5.64979e-05
8.32559e-05
9.84587e-05
7.28187e-05
8.57516e-05
0.000121882
7.95257e-05
9.13314e-05
0.00011779
6.4806e-05
7.79974e-05
6.32708e-05
8.19701e-05
0.000108716
0.000105203
8.14266e-05
7.36313e-05
8.97886e-05
0.000120681
0.000103876
9.6544e-05
0.00010854
7.62666e-05
9.61164e-05
0.000123806
6.42781e-05
9.66676e-05
8.74127e-05
0.00011984
7.60618e-05
8.96103e-05
7.06743e-05
0.000117804
0.000102897
9.63561e-05
0.000119287
8.70735e-05
8.82178e-05
9.5889e-05
0.000104284
9.20706e-05
7.24218e-05
9.8513e-05
8.69554e-05
8.77069e-05
8.22737e-05
9.49122e-05
9.17141e-05
8.15814e-05
7.41396e-05
9.75454e-05
7.49262e-05
0.00010301
0.00011492
0.000112828
9.3321e-05
9.49943e-05
9.13856e-05
0.000112591
9.2877e-05
9.38594e-05
9.26982e-05
7.27205e-05
8.80104e-05
9.62096e-05
8.51986e-05
8.45581e-05
9.46644e-05
8.18188e-05
8.55934e-05
8.104e-05
7.24828e-05
8.70954e-05
0.000123272
7.06949e-05
8.64499e-05
8.14057e-05
9.05477e-05
0.000105111
0.000105419
9.91749e-05
8.34735e-05
9.13628e-05
8.54823e-05
8.25946e-05
8.7711e-05
8.4309e-05
8.07295e-05
9.31528e-05
9.9571e-05
8.49724e-05
8.01893e-05
8.11922e-05
8.8728e-05
0.000101538
7.90216e-05
8.3563e-05
8.01458e-05
8.5491e-05
8.85852e-05
7.73293e-05
8.74588e-05
9.44569e-05
7.33473e-05
8.48459e-05
0.000104474
0.000103986
8.54319e-05
9.47534e-05
7.8022e-05
5.59297e-05
0.000112965
8.03789e-05
9.07467e-05
8.20048e-05
9.10953e-05
0.000116641
9.53745e-05
0.00010926
0.000117296
9.25746e-05
8.75386e-05
9.49136e-05
7.73789e-05
8.78487e-05
7.89151e-05
7.20889e-05
7.03984e-05
0.000101411
8.83293e-05
9.12164e-05
0.000104689
0.000102617
7.37977e-05
8.3813e-05
8.00381e-05
7.2622e-05
8.74922e-05
9.93995e-05
8.34433e-05
8.51835e-05
8.84319e-05
9.24504e-05
9.4564e-05
7.47767e-05
8.69596e-05
0.000102052
8.53477e-05
9.18932e-05
9.3946e-05
9.46644e-05
7.07401e-05
8.8839e-05
0.000116055
8.22344e-05
7.24724e-05
8.22605e-05
9.01198e-05
7.66284e-05
9.42937e-05
8.65858e-05
9.72463e-05
8.56232e-05
7.35433e-05
8.703e-05
9.3745e-05
5.32112e-05
8.25143e-05
8.5579e-05
8.5579e-05
7.66687e-05
0.000107127
8.98183e-05
9.42516e-05
9.20171e-05
8.38279e-05
0.000113149
8.34173e-05
8.38486e-05
7.80813e-05
9.49026e-05
6.73616e-05
0.000114059
8.27355e-05
9.69673e-05
7.26322e-05
9.55572e-05
7.0807e-05
7.94474e-05
0.000104487
9.12588e-05
9.24533e-05
9.57797e-05
7.36615e-05
7.92684e-05
0.000116667
7.87086e-05
7.14286e-05
8.50008e-05
9.70559e-05
9.4056e-05
9.21667e-05
9.55954e-05
9.46169e-05
9.26401e-05
8.62828e-05
9.81159e-05
9.2881e-05
0.00011093
8.90724e-05
9.35001e-05
9.53735e-05
8.4391e-05
9.77531e-05
9.44216e-05
9.90038e-05
8.76259e-05
0.00010033
9.17895e-05
9.37628e-05
0.000103892
8.59806e-05
8.76838e-05
9.39678e-05
0.000131597
7.55887e-05
9.88187e-05
0.000108948
0.00011858
9.49339e-05
0.000108044
0.000104603
0.000101322
8.90877e-05
0.000100729
6.22492e-05
0.000118348
0.000108571
0.00010076
8.73776e-05
9.4935e-05
0.000110412
7.50282e-05
0.000102687
5.87737e-05
9.973e-05
0.000104711
7.15453e-05
8.92604e-05
8.1619e-05
0.000119908
8.50471e-05
8.61501e-05
4.90232e-05
4.73488e-05
0.000101177
6.94649e-05
5.34611e-05
8.20367e-05
7.71488e-05
7.2795e-05
9.17527e-05
4.79483e-05
9.06175e-05
0.000111967
0.000111205
0.000102355
5.65439e-05
8.93979e-05
7.55253e-05
0.000103436
8.05221e-05
0.000128315
7.51065e-05
8.81652e-05
0.000103888
6.90644e-05
8.25311e-05
7.68539e-05
7.43687e-05
8.49621e-05
7.29294e-05
9.47785e-05
0.000114626
0.000116273
6.95874e-05
7.91632e-05
7.65092e-05
9.92419e-05
6.39947e-05
7.19123e-05
8.99993e-05
9.35608e-05
0.000101287
0.00010859
8.83954e-05
0.000124838
9.17862e-05
9.97432e-05
0.000102354
8.90567e-05
9.07031e-05
0.00010323
8.32202e-05
8.87227e-05
8.10387e-05
8.87642e-05
9.37301e-05
0.000114447
6.93791e-05
0.000101965
8.30664e-05
6.90695e-05
8.79266e-05
7.00173e-05
6.72897e-05
9.13614e-05
8.513e-05
6.98699e-05
8.77843e-05
8.50357e-05
9.39062e-05
6.85947e-05
9.98921e-05
9.56672e-05
7.21112e-05
0.000104804
9.80376e-05
8.15604e-05
0.000106246
9.72679e-05
7.29628e-05
0.000104581
8.59361e-05
6.98335e-05
8.89043e-05
0.00010235
8.61457e-05
6.98427e-05
0.000105222
9.7363e-05
9.55689e-05
0.000101152
9.5125e-05
9.5304e-05
0.000107408
7.8671e-05
0.000113628
9.8344e-05
8.03829e-05
0.000109987
0.000116553
9.89358e-05
0.00010168
8.94607e-05
0.000103194
8.50317e-05
0.00010211
7.55782e-05
9.01834e-05
9.65994e-05
9.69574e-05
9.6574e-05
9.74959e-05
0.000105133
9.86871e-05
6.89787e-05
0.000103855
0.000100535
0.00013034
9.30285e-05
8.6321e-05
0.000104579
5.22027e-05
8.57373e-05
8.4161e-05
9.70684e-05
6.89011e-05
9.73637e-05
0.000112919
8.69838e-05
9.51175e-05
0.000105639
5.92856e-05
8.98388e-05
9.49741e-05
9.65447e-05
9.03211e-05
0.000120881
0.000112769
5.80832e-05
0.000126224
0.00010912
5.66975e-05
8.81308e-05
0.000104371
5.40596e-05
9.55632e-05
8.61953e-05
0.000108339
9.7211e-05
7.93112e-05
8.83927e-05
5.62399e-05
0.000101012
9.68194e-05
5.64828e-05
0.00011461
9.91868e-05
6.13108e-05
0.000102488
9.74567e-05
0.000119179
9.35278e-05
9.49668e-05
9.64357e-05
8.94262e-05
6.75018e-05
0.00010215
9.56816e-05
6.7991e-05
0.000100096
9.88279e-05
6.42857e-05
8.4575e-05
8.86626e-05
8.51038e-05
9.38988e-05
9.23542e-05
9.09641e-05
0.000115281
8.74448e-05
0.000101209
9.56549e-05
5.97731e-05
0.000114613
9.59191e-05
6.02119e-05
8.10383e-05
6.40388e-05
0.000114848
8.73328e-05
0.000114201
9.45144e-05
5.59322e-05
0.000107844
5.9763e-05
0.00010355
9.01325e-05
6.10512e-05
0.000100933
9.57121e-05
0.000100142
6.52479e-05
0.000104937
9.49116e-05
5.84968e-05
8.26222e-05
8.99851e-05
6.45523e-05
6.05241e-05
8.95389e-05
0.000115398
7.26008e-05
9.04859e-05
5.79964e-05
8.58411e-05
0.000119648
0.000107428
6.89875e-05
0.000100682
7.61879e-05
6.15596e-05
0.000108643
9.29476e-05
0.000105031
6.01642e-05
0.000101208
0.000100757
9.84396e-05
0.000108228
9.51866e-05
0.000104735
5.76751e-05
8.91129e-05
0.000115968
6.4914e-05
6.28796e-05
9.34904e-05
8.91744e-05
8.71258e-05
0.00010461
0.000142657
5.42462e-05
8.51503e-05
7.79494e-05
9.47193e-05
6.26918e-05
5.73605e-05
6.10297e-05
9.31713e-05
6.49117e-05
9.22787e-05
6.14623e-05
6.34905e-05
9.15835e-05
9.92282e-05
9.92626e-05
9.65383e-05
6.65252e-05
0.000107246
9.92129e-05
0.000104685
8.92665e-05
9.02212e-05
0.000119766
0.000117818
0.000103452
9.8817e-05
6.80655e-05
0.000113076
0.000104215
0.000107928
0.000104189
5.81751e-05
5.72675e-05
8.41253e-05
9.22174e-05
8.53763e-05
9.43877e-05
7.9195e-05
9.12098e-05
8.37752e-05
6.95258e-05
7.08255e-05
8.3124e-05
6.56908e-05
9.36665e-05
8.78035e-05
9.44185e-05
7.01004e-05
8.98113e-05
9.70155e-05
8.63316e-05
9.73004e-05
9.92562e-05
9.12316e-05
6.42419e-05
0.00010387
9.55376e-05
8.48701e-05
0.00011554
6.10701e-05
9.22499e-05
9.94163e-05
9.62691e-05
8.14981e-05
9.6733e-05
8.89274e-05
8.7524e-05
6.93542e-05
8.8235e-05
0.00010733
0.000101883
7.53496e-05
6.64333e-05
8.96717e-05
6.16478e-05
7.68513e-05
0.000105241
0.00011279
8.16694e-05
0.000117156
9.5509e-05
9.57813e-05
9.8751e-05
0.000120291
0.000112888
7.94193e-05
6.31229e-05
0.000102788
8.05814e-05
6.21663e-05
0.000104761
0.000106419
0.000118472
8.43224e-05
9.72587e-05
0.000107859
8.87607e-05
9.1203e-05
9.40479e-05
6.52679e-05
0.000101931
8.16406e-05
7.36601e-05
0.000111671
0.000103415
0.000115165
6.52939e-05
9.42828e-05
0.000126796
9.12195e-05
6.79324e-05
7.73317e-05
7.87934e-05
9.09761e-05
6.54968e-05
7.67749e-05
8.45426e-05
6.18013e-05
9.72565e-05