/*--------------------------------*- C++ -*----------------------------------*\
| =========                 |                                                 |
| \\      /  F ield         | OpenFOAM: The Open Source CFD Toolbox           |
|  \\    /   O peration     | Version:  v2012                                 |
|   \\  /    A nd           | Website:  www.openfoam.com                      |
|    \\/     M anipulation  |                                                 |
\*---------------------------------------------------------------------------*/
FoamFile
{
    version     2.0;
    format      ascii;
    class       volScalarField;
    location    "1";
    object      p_rgh;
}
// * * * * * * * * * * * * * * * * * * * * * * * * * * * * * * * * * * * * * //

dimensions      [1 -1 -2 0 0 0 0];


internalField   nonuniform List<scalar> 
108993
(
0.10757
0.0228802
0.143084
0.0754138
0.0952282
0.0117685
0.025355
0.0950909
0.163466
0.103748
0.127396
0.129345
0.0848663
0.117214
0.113003
0.0799316
0.0993428
0.110767
0.0805214
0.0166828
0.10589
0.0828724
0.0258875
0.113825
0.0827284
0.0135628
0.227055
0.0181185
0.0147963
0.11035
0.311406
0.118627
0.215979
0.102967
0.0604761
0.104517
0.244483
0.114649
0.0201811
0.0181464
0.0235309
0.16049
0.119252
0.0712826
0.0608576
0.0184038
0.224281
0.0253252
0.0132098
0.0153628
0.163631
0.0417465
0.0228171
0.180248
0.109115
0.114569
0.15166
0.0999115
0.11321
0.0984795
0.102953
0.0937041
0.109459
0.0107315
0.0751956
0.0144406
0.0809365
0.0963935
0.114267
0.0652207
0.113974
0.0926011
0.107136
0.0946023
0.0146219
0.408772
0.0108052
0.0985349
0.129913
0.0825553
0.119191
0.110914
0.115889
0.138423
0.111088
0.119731
0.141539
0.127489
0.0946235
0.085801
0.089774
0.326347
0.0910598
0.0908296
0.0922738
0.117947
0.279284
0.126768
0.296471
0.209219
0.0934491
0.0897698
0.116099
0.117449
0.117455
0.0906909
0.111895
0.033041
0.10249
0.0159041
0.0440713
0.0891067
0.0358553
0.0386375
0.150069
0.0148093
0.0980486
0.138177
0.0825333
0.286605
0.112267
0.0913346
0.00975602
0.136722
0.111108
0.086891
0.0240395
0.120305
0.0877329
0.0733927
0.118796
0.0808055
0.126467
0.0404105
0.157603
0.159058
0.0939215
0.128939
0.111145
0.116777
0.139428
0.226802
0.0717648
0.0857496
0.0785684
0.111204
0.120683
0.0130428
0.137998
0.020442
0.0209745
0.0131644
0.0260827
0.0214283
0.128147
0.0312911
0.118279
0.0326666
0.0981314
0.0482503
0.0213582
0.0358594
0.761549
0.112816
0.120827
0.0365148
0.0984396
0.0110688
0.0110119
0.144444
0.0939488
0.115674
0.0443014
0.146674
0.0111967
0.0132724
0.0348983
0.0111862
0.146332
0.146043
0.104546
0.124562
0.0596778
0.13747
0.116795
0.118641
0.0651617
0.114369
0.11382
0.137073
0.133946
0.0814478
0.130575
0.0326186
0.139549
0.128818
0.0235227
0.124588
0.119559
0.138126
0.0997937
0.0335983
0.109763
0.00934785
0.0310351
0.0160782
0.179357
0.0124475
0.13465
0.0233968
0.0407877
0.121388
0.0348183
0.00213887
0.0238163
0.118866
0.114092
0.189558
0.057684
0.211683
0.00933942
0.0199289
0.108228
0.0325612
0.00819601
0.0113615
0.0341568
0.177223
0.0451983
0.0144544
0.0272248
0.11492
0.0113059
0.0222629
0.162903
0.265331
0.121076
0.0988204
0.0406174
0.0364088
0.295438
0.155968
0.0995982
0.0232567
0.0609382
0.0805133
0.00322796
0.0113639
0.0397939
0.105372
3.55366
0.0744196
0.154767
0.143315
0.0456784
0.0275713
0.044721
0.131346
0.216577
0.0120925
0.202063
0.0144961
0.0922029
0.0835845
0.0963125
0.0156517
0.208306
0.0131339
0.0121205
0.136326
0.0953564
0.156848
0.0101287
0.0246805
0.0123247
0.142337
0.25776
0.00642026
0.131232
0.0162901
0.0159849
0.0194344
0.0194536
0.0141395
0.136431
0.105511
0.0852435
0.0147984
0.12221
0.0120997
0.11238
0.240712
0.0150458
0.231984
0.0131482
0.193439
0.294449
0.215615
0.0842042
0.0997469
0.0131134
0.018299
0.114244
0.0995304
0.151678
0.0235529
0.00439952
0.0163222
0.0237557
0.00851785
0.0990657
0.101547
0.100076
0.107177
0.0237342
0.0170002
0.0107435
0.103261
0.0177949
0.159722
0.0222594
0.0106652
0.017853
0.0176338
0.124045
0.0322868
0.0238152
0.0172215
0.17968
0.126862
0.00804411
0.0149577
0.0377133
0.195367
0.0151111
0.111462
0.165402
0.097993
0.144499
0.140029
0.156243
0.012378
0.0122375
0.118047
0.119355
0.111158
0.175948
0.106424
0.164894
0.17314
0.188045
0.0117981
0.0190048
0.0104763
0.00532145
0.117365
0.126274
0.0153527
0.132631
0.0115334
0.110618
0.0116369
0.17816
0.176063
0.0142691
0.0168285
0.181769
0.129253
0.117565
0.0259517
0.0265867
0.11016
0.173562
0.0233608
0.0166435
0.01984
0.115508
0.155127
0.0180574
0.13627
0.017943
0.018274
0.0154938
0.0736112
0.111149
0.0275113
0.1051
0.0273424
0.0162642
0.0124621
0.0183995
0.0275177
0.0185346
0.113684
0.0108513
0.0142486
0.0246062
0.142172
0.0812186
0.161024
0.0154275
0.00566666
0.00866774
0.163805
0.0076493
0.0275187
0.0274769
0.120564
0.128927
0.0237343
0.114565
0.0198805
0.0245172
0.112642
0.124625
0.178493
0.0221606
0.070484
0.0105703
0.0995931
0.023853
0.0226424
0.0234752
0.0113271
0.0987251
0.0231297
0.11088
0.0136648
0.0232515
0.0953413
0.0244716
0.0186471
0.0240907
0.102142
0.157949
0.104756
0.00310616
0.0120711
0.0118209
0.23121
0.114693
0.16838
0.14976
0.00873559
0.053923
0.0286574
0.0263021
0.0444045
0.168047
0.00857902
0.119278
0.0945138
0.167553
0.106313
0.011964
0.114259
0.115259
0.00874401
0.136066
0.162346
0.00877402
0.138925
0.00871627
0.0181702
0.0779092
0.156656
0.0132834
0.00889649
0.154073
0.146747
0.0772325
0.100148
0.232022
0.0267535
0.00394573
0.0860442
0.220457
0.0382324
0.0106498
0.0766019
0.116285
0.238731
0.208774
0.189018
0.12041
0.14788
0.149776
0.153656
0.0458385
0.105487
0.114657
0.115854
0.080753
0.145947
0.0717989
0.109964
0.118483
0.168612
0.168361
0.0196916
0.10125
0.250753
0.235599
0.164711
0.0645651
0.0162533
0.177712
0.25295
0.0284776
0.174813
0.0875469
0.0274304
0.361744
0.112322
0.175023
0.0183489
0.0134125
0.175641
0.0170885
0.0223824
0.0023789
0.00115938
0.026262
0.0266907
0.0144321
0.0664301
0.0261098
0.15437
0.0653011
0.0265664
0.0121226
0.106084
0.0673035
0.113668
0.119916
0.154604
0.0310567
0.120791
0.0966837
0.010661
0.110768
0.0106249
0.0957799
0.111115
0.134755
0.141666
0.108801
0.0661071
0.137403
0.176408
0.0124966
0.0118657
0.0213838
0.112252
0.114426
0.110395
0.280438
0.0220124
0.0252533
0.0179825
0.106109
0.893951
0.147837
0.0269699
0.0523425
0.0125955
0.116392
0.293112
0.0225458
0.023153
0.139302
0.0235331
0.0256288
0.0523266
0.014909
0.0267008
0.119354
0.0512024
0.0234373
0.0324654
0.110062
0.11722
0.146315
0.0888198
0.11385
0.0707084
0.0188909
0.0510288
0.119264
0.0115928
0.0242609
0.112443
0.017189
0.168787
0.0248889
0.121777
0.168712
0.112134
0.0221143
0.0814862
0.156504
0.125346
0.0248901
0.100672
0.115708
0.112955
0.0246491
0.112671
0.0998994
0.13428
0.0411046
0.130165
0.0631618
0.135466
0.0251979
0.164196
0.0950351
0.112301
0.0128099
0.180482
0.0405991
0.183115
0.117795
0.0130702
0.0200425
0.101953
0.236189
0.0111807
0.0197203
0.0928104
0.018075
0.0173843
0.0121524
0.0325795
0.095428
0.0129654
0.112862
0.0205692
0.0669917
0.0409916
0.10934
0.0406928
0.173951
0.0290575
0.203928
0.0938629
0.113962
0.0403519
0.0670805
0.0935434
0.0956652
0.0698554
0.0110688
0.0207258
0.0679106
0.0173201
0.0632278
0.0210368
0.0568705
0.0210348
0.0207635
0.0126868
0.100285
0.235166
0.0141666
0.0195968
0.0250626
0.0938046
0.00960347
0.010733
0.0897799
0.0275789
0.0374278
0.0206084
0.0208954
0.0936083
0.031381
0.0781654
0.0115715
0.0139568
0.0235889
0.0443664
0.0777219
0.0958193
0.0125037
0.0935231
0.0556544
0.078412
0.0791793
0.0245148
0.115561
0.1477
0.0430051
0.10596
0.0186261
0.0282112
0.0887086
0.013647
0.0890302
0.0261467
0.0343782
0.257942
0.0100984
0.0100221
0.0819483
0.101977
0.0612925
0.0252152
0.192398
0.0101257
0.0307925
0.0112917
0.0214641
0.117338
0.022407
0.12051
0.0388974
0.0766932
0.0995068
0.0400646
0.0172092
0.091589
0.0342143
0.081506
0.109643
0.0864655
0.0315749
0.0411927
0.0120147
0.100364
0.0422737
0.0906284
0.078605
0.0855448
0.118144
0.0997663
0.0370795
0.0110994
0.151987
0.0236925
0.127472
0.0817956
0.0194735
0.0146426
0.10508
0.0300105
0.0993321
0.097331
0.102203
0.0835141
0.117498
0.0112079
0.0108177
0.107231
0.0110476
0.0302315
0.0108361
0.0912513
0.0750323
0.0139816
0.0984096
0.0112032
0.106452
0.120381
0.0659102
0.0203602
0.0219241
0.0108539
0.0826211
0.169453
0.118761
0.0369493
0.153236
0.0125035
0.0149189
0.11126
0.116972
0.0251094
0.0112927
0.103616
0.175595
0.0570033
0.116599
0.117051
0.028821
0.0134785
0.0295393
0.0965463
0.144542
0.0654687
0.178913
0.0168086
0.189512
0.136147
0.0175533
0.0919092
0.0167997
0.0285258
0.0206325
0.110361
0.0293291
0.0860414
0.0886387
0.119694
0.0911822
0.321863
0.118871
0.114983
0.132764
0.157699
0.128608
0.0226715
0.167956
0.0652448
0.14212
0.0498006
0.0229775
0.120627
0.0297433
0.0231496
0.0282567
0.106712
0.11372
0.107684
0.0257775
0.030104
0.0234329
0.0715793
0.0330775
0.0220624
0.027565
0.0115964
0.0751889
0.128025
0.0556896
0.023067
0.125642
0.0615687
0.0193886
0.12446
0.112934
0.112003
0.0307355
0.111667
0.0238412
0.0656313
0.11721
0.12323
0.0265115
0.120747
0.0264899
0.114547
0.0263915
0.118373
0.0283336
0.0270776
0.0732556
0.0296166
0.119458
0.0271022
0.0270563
0.0630266
0.0276971
0.0201698
0.00700745
0.00657092
0.122052
0.068778
0.101854
0.0719324
0.0907653
0.158443
0.0752724
0.0200572
0.158475
0.0747855
0.0518165
0.0438485
0.0209576
0.0323149
0.0216105
0.0203047
0.0315134
0.045326
0.027184
0.0371349
0.097698
0.0353607
0.0161043
0.02181
0.102023
0.166286
0.0780273
0.086132
0.0326824
0.00233958
0.100128
0.0744589
0.0146849
0.0956745
0.0523337
0.0278584
0.0156421
0.0386309
0.00839634
0.11538
0.0327394
0.0225805
0.01594
0.0245336
0.09591
0.115663
0.0857582
0.0368226
0.0340055
0.122728
0.0354092
0.0771165
0.0856757
0.0180978
0.119784
0.0919849
0.0269249
0.014837
0.0309975
0.0987108
0.0175879
0.0374915
0.00985912
0.0133302
0.0117195
0.0132523
0.0484106
0.0710568
0.0947826
0.0920449
0.13623
0.0179721
0.114804
0.0286229
0.0223639
0.0188836
0.0302864
0.0319557
0.0378436
0.0134251
0.098452
0.0327698
0.0380914
0.0130026
0.0120234
0.0972289
0.0123734
0.0177143
0.115468
0.0710096
0.0146825
0.093671
0.0985249
0.0951582
0.0255651
0.0349682
0.013692
0.0384044
0.0666926
0.0714109
0.09555
0.0752207
0.022738
0.0272918
0.0698908
0.0175515
0.0990701
0.259045
0.00981303
0.0679884
1.09805
0.115254
0.117152
0.0667265
0.120363
0.150283
0.122347
0.00996869
0.128063
0.123537
0.0146605
0.041375
0.121772
0.122177
0.106287
0.0941222
0.0161976
0.147695
0.0151753
0.00996688
0.0131748
0.0102829
0.0237606
0.0604326
0.0198203
0.121569
0.100102
0.037382
0.0583297
0.0340993
0.0134253
0.122177
0.00928409
0.12379
0.0324819
0.0617474
0.0388553
0.0118735
0.119897
0.121011
0.117078
0.110172
0.0292199
0.120031
0.0119164
0.133289
0.24676
0.0112618
0.133659
0.029354
0.0168923
0.133094
0.0304662
0.0454254
0.0272168
0.0281322
0.132808
0.162075
0.0269574
0.0320227
0.130092
0.137785
0.284963
0.0233419
0.115789
0.0308139
0.153757
0.0772364
0.0863722
0.13332
0.019186
0.0387642
0.0774482
0.0292277
0.0191693
0.0941799
0.0720463
0.0300131
0.0188636
0.0116988
0.118094
0.118113
0.0416297
0.0827539
0.0280293
0.0695967
0.0264862
0.104645
0.0242897
0.0746541
0.122619
0.073939
0.0357803
0.076828
0.0919926
0.0539695
0.0463869
0.048491
0.167575
0.0115136
0.0118138
0.186635
0.0114961
0.0948024
0.0998633
0.0416267
0.0132147
0.0217534
0.0920642
0.131419
0.177382
0.049548
0.0429084
0.0114723
0.0917342
0.119552
0.107394
0.0117731
0.0996413
0.0219398
0.0724925
0.144224
0.0108823
0.0090234
0.126543
0.12612
0.0325657
0.0798306
0.024431
0.0269663
0.0524664
0.0863377
0.125028
0.0118647
0.116958
0.11858
0.0116868
0.101699
0.118637
0.121003
0.166374
0.123663
0.124354
0.117834
0.134949
0.00476863
0.194152
0.120816
0.100497
0.124821
0.0567953
0.0382529
0.0356632
0.0149882
0.125507
0.0990437
0.0962525
0.113435
0.107963
0.128163
0.017595
0.139301
0.129502
0.0436794
0.116556
0.0284961
0.0178662
0.0173758
0.129221
0.113122
0.0247563
0.0234963
0.122283
0.116773
0.199175
0.0270902
0.0265764
0.183806
0.0101266
0.222796
0.0100644
0.00979636
0.128763
0.0114934
0.024316
0.0858646
0.0173821
0.0103587
0.0241244
0.0237734
0.0259686
0.0182432
0.0299139
0.0892095
0.0146809
0.0200073
0.0200166
0.0962522
0.0431745
0.027478
0.0274896
0.0274964
0.0234053
0.0325747
0.271601
0.0689415
0.1112
0.0640344
0.0704135
0.027456
0.114183
0.0209786
0.116704
0.0211156
0.106351
0.104344
0.0165103
0.0210576
0.0736208
0.198637
0.184316
0.0727652
0.00885914
0.38596
0.00897768
0.10492
0.00899485
0.0319452
0.0694941
0.00893651
0.136013
0.0562561
0.116923
0.0674813
0.0118228
0.0253391
0.0064237
0.0678515
0.0948069
0.0395113
0.0660141
0.0274763
0.039592
0.144359
0.114173
0.0971104
0.105032
0.104201
0.0250851
0.154753
0.105441
0.11962
0.0174538
0.139446
0.252175
0.0279085
0.133304
0.0117891
0.0140275
0.206623
0.0302711
0.108062
0.0286068
0.11515
0.104305
0.103315
0.0308728
0.279659
0.0141979
0.0843704
0.114247
0.0126137
0.115537
0.00461894
0.147945
0.0299265
0.0226069
0.121031
0.0533177
0.0411675
0.0240612
0.0650661
0.0239606
0.116673
0.0766007
0.11665
0.00811474
0.00842844
0.00806833
0.0119935
0.00822177
0.0785683
0.00848715
0.00834746
0.0274952
0.0274976
0.0115314
0.0422738
0.116702
0.191504
0.181568
0.0274825
0.144036
0.0198496
0.0190664
0.0577616
0.103528
0.122657
0.0043524
0.107277
0.00453867
0.00108248
0.191989
0.0326889
0.0391705
0.000657641
0.0401299
0.0302593
0.0226698
0.0228292
0.0130522
0.0691111
0.128473
0.019938
0.032182
0.00225513
0.110862
0.108398
0.00160526
0.108767
0.020954
0.110039
0.0580352
0.109368
0.0777869
0.0490985
0.100688
0.238517
0.0112253
0.159907
0.0995506
0.314271
0.27614
0.106191
0.0113761
0.105722
0.0260622
0.0173319
0.102926
0.012753
0.0116407
0.108197
0.00767662
0.200037
0.0120523
0.0119257
0.116044
0.119715
0.0111265
0.00981003
0.0476153
0.0919044
0.0184735
0.0126378
0.1158
0.108163
0.0945699
0.0977791
0.09843
0.0269506
0.0206558
0.10242
0.183456
0.0258781
0.0891099
0.0114713
0.119789
0.117313
0.0203327
0.0192519
0.0884831
0.289088
0.0134928
0.0110172
0.0202609
0.0752979
0.122894
0.0311275
0.141692
0.0203194
0.109164
0.0906458
0.025567
0.0773377
0.0985362
0.0140256
0.0351206
0.0201424
0.0680224
0.0288431
0.0188939
0.128078
0.0956157
0.0345786
0.0824943
0.109013
0.098228
0.0422593
0.0116021
0.0108478
0.0969222
0.0964348
0.0137442
0.106154
0.0118408
0.0121284
0.106271
0.303684
0.10513
0.119698
0.0163369
0.0126317
0.115756
0.0393022
0.105489
0.01527
0.105666
0.0130009
0.105562
0.107193
0.0108038
0.0800042
0.107264
0.0197298
0.0965397
0.0254349
0.0440667
0.0125071
0.0105443
0.115005
0.0150408
0.0435215
0.016286
0.00979215
0.11488
0.0610624
0.0151242
0.0198399
0.0764833
0.0233917
0.113516
0.0292128
0.148767
0.113682
0.0197572
5.88168
0.19945
0.172207
6.12208
0.00842431
0.00650585
0.0223818
0.0112053
0.0379578
0.00853388
0.0149264
0.0115759
0.00833848
0.00880325
0.163243
0.0378892
0.0623875
0.0134736
0.171692
0.0164142
0.0428081
0.0235334
0.116287
0.0348435
0.170629
0.114388
0.115445
0.0271436
0.019387
0.0321077
0.0103145
0.0299252
0.114692
0.0913985
0.0219343
0.113582
0.115637
0.0119903
0.0101737
0.0134061
0.0391017
0.0248725
0.111826
0.100576
0.02533
0.113953
0.0272485
0.132325
0.115318
0.0254076
0.113064
0.025347
0.117377
0.0260024
0.023594
0.0631749
0.0265835
0.0122057
0.0623669
0.101644
0.0418064
0.165831
0.113728
0.113175
0.179239
0.0997979
0.143128
0.0267453
0.102373
0.0832339
0.050956
0.0165137
0.0128094
0.00887725
0.176558
0.0194657
0.0219075
0.14792
0.00964758
0.126201
0.113337
0.0356865
0.0110335
0.0199614
0.0101568
0.126098
0.0267922
0.0191386
0.0186155
0.0147239
0.00987739
0.0356637
0.0348557
0.0142824
0.027339
0.0202151
0.0339926
0.00433669
0.0339481
0.00817124
0.034744
0.0275601
0.0381486
0.0276387
0.0270646
0.012494
0.0185444
0.0198072
0.212322
0.199833
0.0218672
0.0997831
0.0205545
0.0175274
0.120209
0.0223215
0.0272113
0.111758
0.110089
0.109568
0.111077
0.0268114
0.0126641
0.0152842
0.00315843
0.0164822
0.118126
0.0403622
0.0274038
0.0286617
0.125955
0.0264409
0.106524
0.110503
0.0121716
0.109252
0.031213
0.10982
0.111539
0.0931153
0.0203844
0.0269167
0.0571291
0.0204434
0.0633605
0.00932617
0.044227
0.111978
0.112202
0.0159493
0.112759
0.123715
0.109614
0.00787014
0.0370686
0.0356008
0.0406036
0.0209606
0.0672663
0.112053
0.0459325
0.0166969
0.0305734
0.0333874
0.006229
0.0813075
0.00614786
0.0184626
0.0279555
0.0405013
0.127038
0.0108417
0.103663
0.100831
0.032798
0.0900658
0.045981
0.00747783
0.0340798
0.0173376
0.0133171
0.00124505
0.0201425
0.0185641
0.0109908
0.0166102
0.0134584
0.0187073
0.0224435
0.113044
0.027536
0.0112484
0.0808588
0.0436506
0.177975
0.0437395
0.0227645
0.010733
0.0448728
0.0175361
0.00847592
0.0449113
0.109272
0.0223667
0.0291038
0.0723185
0.0386199
0.108392
0.0732416
0.0596219
0.11694
0.0343917
0.0651853
0.0884014
0.0171391
0.0235345
0.0436299
0.0223512
0.010684
0.0270723
0.0282774
0.0101576
0.125317
0.0257452
0.0158781
0.0226597
0.0383591
0.0955357
0.0240325
0.0761653
0.0979285
0.0825246
0.0194208
0.0136491
0.0651292
0.0670778
0.0141346
0.0289791
0.0242336
0.040334
0.0282222
0.0176698
0.0175615
0.130895
0.118773
0.0236612
0.0296721
0.047171
0.0594752
0.0404827
0.0370897
0.0239885
0.0287773
0.0399204
0.0216697
0.00885536
0.0138439
0.028581
0.113343
0.0295784
0.0874701
0.0200431
0.0368241
0.0221684
0.0877237
0.0277744
0.0294667
0.0163416
0.105068
0.0465201
0.0304548
0.028565
0.0199753
0.0246547
0.126181
0.119542
0.0983592
0.00422703
0.0593627
0.0635112
0.0300165
0.0394545
0.0386464
0.0465575
0.0187047
0.025347
0.02094
0.0499567
0.104023
0.0261809
0.0108643
0.156805
0.125799
0.0200403
0.0133702
0.0104026
0.11937
0.12101
0.0283165
0.0942178
0.0249711
0.0253487
0.0241752
0.0204562
0.168214
0.0317894
0.0377673
0.0106059
0.0487896
0.186173
0.0959757
0.0391296
0.0860199
0.0959143
0.027514
0.0283278
0.126248
0.0966479
0.13368
0.0407482
0.0145946
0.00997256
0.0252633
0.0217573
0.0169797
0.0365704
0.0111639
0.0295577
0.0266611
0.0151078
0.133078
0.105905
0.114694
0.0139848
0.0146554
0.114223
0.150765
0.0185938
0.108269
0.0818203
0.10827
0.107292
0.0388327
0.0119683
0.0209239
0.0156948
0.0163092
0.0828931
0.0128566
0.105802
0.00244249
0.0117127
0.113339
0.0111975
0.138541
0.208917
0.0137476
0.061475
0.0228608
0.0114424
0.0115418
0.0121534
0.0117609
0.017723
0.0112183
0.0101807
0.00949335
0.0271258
0.0570353
0.0111294
0.0120709
0.0100122
0.0367999
0.0236391
0.10434
0.00999713
0.0198467
0.010773
0.0183205
0.0126309
0.0115522
0.0131096
0.102782
0.0263057
0.0121109
0.0114666
0.0150744
0.00712462
0.0215989
0.0180339
0.0843359
0.0100261
0.00944586
0.0122018
0.114259
0.0124152
0.0151964
0.11968
0.0131286
0.113827
0.0110062
0.011592
0.0123165
0.114725
0.0118745
0.115086
0.178161
0.372857
0.0124281
0.010989
0.00942116
0.0118516
0.0197256
0.356959
0.0984139
0.0197755
0.0268517
0.120203
0.00873392
0.120156
0.120499
0.0112438
0.141907
0.0379955
0.0382481
0.0167689
0.145056
0.011
0.0108255
0.130204
0.0585523
0.0213058
0.279859
0.011528
0.0303106
0.020509
0.0145172
0.0949803
0.0145156
0.0993443
0.041386
0.00875193
0.0186429
0.0233936
0.0314255
0.0165823
0.0251741
0.0248342
0.0426077
0.0953113
0.0119531
0.0126881
0.0169543
0.00993087
0.119057
0.110603
0.0186015
0.0443648
0.011098
0.0953023
0.00579796
0.0813766
0.100631
0.080144
0.0739186
0.230542
0.0297432
0.204135
0.0139693
0.202266
0.0949009
0.0118999
0.0214486
0.0134485
0.0126699
0.0573239
0.095216
0.0953445
0.0138971
0.0113595
0.0455511
0.0984607
0.0115069
0.0204286
0.0154513
0.0350358
0.0208338
0.111762
0.0701687
0.0135676
0.155696
0.015209
0.166588
0.0170076
0.0104899
0.0142938
0.0286128
0.0114464
0.0242724
0.0211055
0.0143818
0.0258722
0.177489
0.012299
0.0667558
0.0642506
0.0610671
0.0175603
0.0200089
0.0671005
0.176934
0.0615483
0.0117867
0.0115864
0.174745
0.046032
0.0375869
0.0114124
0.0243973
0.145113
0.107406
0.0128549
0.0125923
0.0105797
0.0104993
0.0150659
0.0118772
0.141396
0.0176476
0.0264632
0.0172417
0.011294
0.0113586
0.0220335
0.0306595
0.104954
0.15436
0.0184851
0.147823
0.142822
0.0261585
0.0149813
0.0454094
0.0143318
0.104338
0.0192336
0.0252479
0.0467338
0.0206934
0.027765
0.0270161
0.00928034
0.0412671
0.0249327
0.0315615
0.0295207
0.0275933
0.026436
0.0302375
0.102739
0.0268724
0.0126447
0.0210883
0.10339
0.0315224
0.0277182
0.101145
0.0113481
0.0295619
0.108272
0.0282548
0.102899
0.0160226
0.0120924
0.0361636
0.0102396
0.0136168
0.112989
0.103751
0.0202953
0.022524
0.0243156
0.0136513
0.0138048
0.045842
0.00860951
0.00849942
0.00854982
0.132713
0.0204013
0.111896
0.0321304
0.0152792
0.0139579
0.134982
0.0486476
0.00851726
0.0344503
0.113919
0.0974722
0.0363369
0.00862961
0.00865084
0.137799
0.117377
0.090227
0.0205728
0.0206811
0.0467168
0.0338759
0.0273671
0.0285696
0.0123273
0.027456
0.0889424
0.0287174
0.123447
0.0419723
0.0479945
0.0207454
0.0286616
0.0268372
0.0209035
0.034594
0.0654252
0.00444232
0.027428
0.115224
0.0607397
0.0205969
0.025948
0.0302157
0.0148012
0.090019
0.0484038
0.0274863
0.01421
0.0295173
0.0287657
0.0239892
0.0295295
0.027064
0.0220714
0.0111667
0.018344
0.0202634
0.115874
0.111278
0.0344053
0.11905
0.052357
0.0182862
0.0111383
0.117965
0.0936445
0.0112442
0.060809
0.0424558
0.0257536
0.0112573
0.0145437
0.0210337
0.0262671
0.0117023
0.0440394
0.0263112
0.116774
0.091177
0.0626333
0.0694644
0.0263333
0.0141304
0.0276438
0.028463
0.117519
0.0263864
0.101194
0.00057508
0.116476
0.11753
0.117858
0.00115237
0.162091
0.117779
0.000867302
0.0441118
0.0214185
0.00126632
0.0473267
0.00068454
0.0932205
0.0133796
0.118825
0.000228252
0.0126469
0.0128857
0.114081
0.0269253
0.0042571
0.0194014
0.0315872
0.0241352
0.140376
0.0579412
0.0264851
0.113897
0.113075
0.113091
0.113226
0.126257
0.0649419
0.0667362
0.0168876
0.0459798
0.0161253
0.0676154
0.0584493
0.0269025
0.0205647
0.0161267
0.026985
0.107106
0.0173192
0.026958
0.0154615
0.115869
0.0270048
0.0297617
0.0355771
0.00737219
0.0318772
0.00757
0.0231899
0.0317871
0.0114549
0.117321
0.0616459
0.118272
0.0779394
0.0313581
0.0758252
0.0110614
0.0305287
0.00758153
0.0792277
0.00901168
0.0311571
0.0950009
0.118097
0.0535936
0.090955
0.0933783
0.118849
0.119447
0.0306555
0.0252898
0.0948822
0.0707306
0.119382
0.119203
0.0229149
0.0896418
0.0440392
0.13817
0.0949685
0.0970218
0.173394
0.027211
0.13683
0.0318618
0.111367
0.115227
0.123944
0.140891
0.0269158
0.137383
0.140276
0.137059
0.101923
0.109517
0.182878
0.0364059
0.10915
0.0743443
0.0242906
0.0130289
0.0250555
0.0872101
0.119773
0.0133928
0.0185014
0.0987017
0.120555
0.0659529
0.0713468
0.0929119
0.139067
0.101304
0.098863
0.083299
0.0448683
0.0965129
0.120487
0.0468112
0.0972514
0.11808
0.0669763
0.120457
0.072944
0.0538947
0.0183637
0.0978656
0.0561038
0.021275
0.0207166
0.112548
0.114219
0.0975343
0.120574
0.0280181
0.0263563
0.113067
0.235078
0.105604
0.011367
0.113526
0.233593
0.243651
0.0203686
0.0530692
0.0730049
0.0202511
0.0437807
0.108133
0.0305128
0.107719
0.000791553
0.0263886
0.0231951
0.0283536
0.139424
0.0338839
0.0201388
0.139144
0.140377
0.020059
0.0310222
0.020205
0.138413
0.0920844
0.129898
0.0254871
0.0165993
0.136098
0.0168396
0.113487
0.117604
0.017187
0.105049
0.116014
0.0339642
0.0173362
0.117444
0.0743089
0.0168829
0.11782
0.0700285
0.0171808
0.00886088
0.084813
0.0132087
0.00912552
0.0396123
0.00896919
0.0279739
0.253266
0.110377
0.0392124
0.0236098
0.039349
0.052135
0.114083
0.019952
0.0122927
0.0522171
0.0210077
0.0243784
0.0275936
0.103561
0.08069
0.00165659
0.0488504
0.0200198
0.0117951
0.056786
0.0511587
0.020546
0.109841
0.0296963
0.0231671
0.250776
0.0508705
0.0746168
0.0366991
0.114235
0.0489645
0.268209
0.26212
0.0975865
0.261619
0.0447217
0.0810968
0.0807577
0.0187562
0.0396409
0.115946
0.102245
0.0800213
0.114951
0.115965
0.0229544
0.0636908
0.108835
0.0669786
0.119026
0.0392464
0.0178285
0.0796399
0.0274167
0.0209383
0.046693
0.0177963
0.080531
0.0400916
0.0468551
0.0585947
0.0561083
0.0368611
0.0739861
0.0340016
0.0198983
0.0554566
0.0647159
0.0756974
0.0556234
0.0422133
0.118087
0.0291518
0.0563502
0.0929261
0.0300711
0.0571322
0.0205491
0.0332495
0.0185764
0.020079
0.023727
0.0187066
0.0449477
0.0156478
0.020116
0.115391
0.0245247
0.021085
0.0288359
0.0118959
0.114341
0.105285
0.0203057
0.0947786
0.0227885
0.0974161
0.0204981
0.0203492
0.0362997
0.175637
0.0285268
0.0384524
0.0538234
0.024492
0.0523571
0.123181
0.0775046
0.112575
0.0934852
0.00629811
0.111715
0.178816
0.0192274
0.118117
0.187021
0.110945
0.0239137
0.132252
0.102572
0.116731
0.036248
0.0384966
0.0266355
0.0390789
0.18358
0.112924
0.0981216
0.108533
0.125389
0.11586
0.106848
0.182212
0.0828036
0.0929868
0.02327
0.186307
0.0341247
0.0390091
0.0167157
0.0138908
0.0278659
0.00707216
0.0139485
0.121785
0.023154
0.140243
0.104382
0.0139944
0.116083
0.126899
0.106673
0.0140069
0.12373
0.121243
0.113833
0.0455906
0.0338244
0.0140517
0.0522523
0.0140457
0.0373889
0.0385773
0.113582
0.0861414
0.0146424
0.111307
0.0242925
0.100063
0.0283326
0.0244923
0.103404
0.0998839
0.0180801
0.015801
0.00957487
0.0523686
0.113318
0.00759294
0.0243959
0.032134
0.113195
0.0251103
0.0680383
0.0225707
0.113375
0.0339744
0.0241755
0.0459249
0.0109493
0.0171822
0.00733434
0.0244535
0.0208974
0.113224
0.0179616
0.11627
0.117704
0.115771
0.116363
0.115838
0.0430744
0.0241384
0.0197309
0.0256142
0.0173074
0.0173299
0.0156814
0.0397588
0.0469643
0.00592071
0.040475
0.0259911
0.00343222
0.0425799
0.015107
0.0243617
0.0186325
0.00625522
0.0395952
0.0406244
0.026559
0.0264893
0.0194498
0.119801
0.0266907
0.0332337
0.0570033
0.033402
0.0872366
0.0154975
0.0307588
0.0167845
0.0265671
0.0258129
0.012974
0.015493
0.019322
0.117164
0.0229062
0.00544107
0.0261621
0.0380182
0.0180216
0.0263954
0.0312916
0.0798703
0.052916
0.0945665
0.121515
0.0197749
0.115996
0.112706
0.0141132
0.114197
0.0725467
0.092145
0.0213391
0.0916876
0.106269
0.0247346
0.0215179
0.0141265
0.015344
0.00253827
0.0122305
0.0311335
0.014164
0.014193
0.111961
0.0148509
0.00913491
0.0184642
0.113011
0.118399
0.050725
0.0152394
0.0606686
0.0837931
0.0256335
0.0157801
0.0141391
0.02376
0.0184154
0.0177331
0.0584887
0.014186
0.0261682
0.0262585
0.0497277
0.0260803
0.0196557
0.0252414
0.0144459
0.0122829
0.00928887
0.109666
0.00946145
0.10866
0.114291
0.108762
0.023644
0.0155507
0.0197623
0.0102935
0.0189653
0.0977111
0.0667122
0.0674063
0.0372106
0.059225
0.0176101
0.0598939
0.0211823
0.0399417
0.0103675
0.0519041
0.0193368
0.109036
0.119685
0.0181374
0.116472
0.00990306
0.0190428
0.0221091
0.100885
0.1187
0.00611244
0.0102664
0.106286
0.00982821
0.112832
0.0511297
0.0195607
0.117506
0.10556
0.0930301
0.0192849
0.0540641
0.13807
0.0103051
0.12005
0.020412
0.116907
0.019317
0.0343976
0.0101877
0.0224899
0.0135135
0.149557
0.0131358
0.0617338
0.162931
0.0949795
0.167099
0.114792
0.0228301
0.0608836
0.0132387
0.0304384
0.025457
0.154918
0.0303643
0.0130166
0.115024
0.0134035
0.11708
0.111296
0.162214
0.100959
0.169756
0.161355
0.0109584
0.146086
0.0296121
0.101113
0.0957305
0.131377
0.11621
0.113534
0.100508
0.0497427
0.028352
0.0114388
0.029064
0.0255979
0.0492309
0.055013
0.0282781
0.0288091
0.0519651
0.00483408
0.147891
0.0994424
0.106128
0.146214
0.09627
0.115988
0.0297951
0.023813
0.121032
0.0201185
0.0108675
0.0244832
0.100118
0.120742
0.0272526
0.0130628
0.0266023
0.0184377
0.036479
0.0128845
0.121451
0.0251898
0.0481734
0.0214633
0.0914003
0.0205812
0.0991281
0.0196526
0.101524
0.105592
0.0306185
0.0191221
0.020244
0.0202681
0.0183668
0.033478
0.0406371
0.0205854
0.00944981
0.0200892
0.119441
0.0161813
0.0138315
0.0139484
0.0446074
0.0144257
0.0435812
0.0365402
0.0145026
0.0143052
0.108431
0.0141525
0.0417762
0.122033
0.0974368
0.108633
0.0366427
0.0161235
0.0113989
0.10707
0.0364104
0.0154957
0.0370603
0.0181624
0.0155016
0.0507131
0.0217754
0.10984
0.0582992
0.0215748
0.0417943
0.113784
0.0227623
0.0323861
0.0141285
0.0124353
0.0216444
0.00980672
0.00997217
0.0266821
0.0144144
0.0214629
0.0229495
0.0133691
0.033738
0.0144131
0.0146334
0.0620889
0.0147942
0.0386865
0.0154695
0.0271061
0.101842
0.0151472
0.0679762
0.014083
0.0139824
0.0859284
0.0330338
0.0547182
0.0461235
0.0191565
0.101236
0.0258597
0.0111744
0.112646
0.0188556
0.112331
0.136194
0.105868
0.0113677
0.0219811
0.0610527
0.00570201
0.116651
0.0323459
0.0109891
0.0113475
0.0470228
0.131971
0.0408389
0.0190301
0.0189716
0.0711066
0.0105401
0.0216871
0.0190275
0.0188748
0.107583
0.0108533
0.137194
0.0201766
0.113807
0.135291
0.0121236
0.0111986
0.0131492
0.0188704
0.0084181
0.0282805
0.120136
0.124412
0.0130709
0.105541
0.113102
0.0435569
0.0400485
0.0115717
0.124759
0.0126182
0.0170455
0.0188795
0.0891536
0.129328
0.0120129
0.105997
0.134698
0.143582
0.0187477
0.0283648
0.11929
0.073857
0.0256158
0.0216399
0.12527
0.0285837
0.148091
0.096318
0.110677
0.166343
0.221235
0.0214675
0.103677
0.00512472
0.0989917
0.0255439
0.119472
0.00937799
0.121064
0.090258
0.0232833
0.0457857
0.0223094
0.0221466
0.0216695
0.00191566
0.0354652
0.025505
0.105956
0.149899
0.119579
0.113235
0.0154477
0.12284
0.109211
0.115673
0.0220584
0.115794
0.0404221
0.148391
0.147044
0.014167
0.103822
0.1289
0.117595
0.180534
0.105199
0.159355
0.121019
0.13826
0.036975
0.111922
0.122723
0.121347
0.124544
0.12672
0.125331
0.0150296
0.0861163
0.106381
0.107136
0.119223
0.0352655
0.113703
0.0346228
0.0397818
0.0782697
0.0333234
0.111933
0.135076
0.102869
0.0145759
0.0124917
0.12454
0.116174
0.0125609
0.12316
0.0216582
0.0144602
0.0993096
0.0172782
0.0222374
0.0249145
0.113208
0.125143
0.127821
0.0129681
0.0126994
0.0129718
0.0324403
0.0175801
0.0340719
0.0271421
0.119134
0.019992
0.013117
0.121756
0.0109262
0.120016
0.0212635
0.0228762
0.0148338
0.12358
0.015998
0.0330358
0.0306037
0.0372547
0.0121684
0.006719
0.0161204
0.0513809
0.00627957
0.0616646
0.00155762
0.122839
0.0067486
0.0163581
0.0238416
0.027162
0.00631772
0.0365433
0.0420342
0.0399639
0.0382629
0.0164373
0.0307507
0.00609957
0.0102351
0.00474686
0.0272339
0.00612958
0.00452016
0.00456093
0.0117431
0.0278666
0.0324739
0.0563395
0.0530274
0.0145721
0.0152809
0.0111702
0.00882851
0.0284317
0.00463478
0.00861892
0.00773099
0.00456055
0.0118131
0.0121689
0.0155106
0.0161722
0.113136
0.0153737
0.164493
0.030327
0.0137789
0.0750735
0.10913
0.0148841
0.0120217
0.174921
0.173137
0.0544339
0.034629
0.18103
0.0270017
0.00472294
0.180565
0.0179169