/*--------------------------------*- C++ -*----------------------------------*\
| =========                 |                                                 |
| \\      /  F ield         | OpenFOAM: The Open Source CFD Toolbox           |
|  \\    /   O peration     | Version:  v2012                                 |
|   \\  /    A nd           | Website:  www.openfoam.com                      |
|    \\/     M anipulation  |                                                 |
\*---------------------------------------------------------------------------*/
FoamFile
{
    version     2.0;
    format      ascii;
    class       surfaceScalarField;
    location    "1";
    object      phi;
}
// * * * * * * * * * * * * * * * * * * * * * * * * * * * * * * * * * * * * * //

dimensions      [1 0 -1 0 0 0 0];
oriented        oriented;


internalField   nonuniform List<scalar> 
210647
(
-6.18078e-05
5.18e-05
5.59447e-05
-4.59467e-05
1.51035e-05
-7.71604e-06
3.0404e-05
-3.77937e-05
-0.000119141
0.00015783
1.12665e-05
-4.99605e-05
-0.000398049
0.000207566
0.000216799
-2.63212e-05
-3.80117e-05
0.000143759
-3.92498e-05
-6.65073e-05
5.44543e-08
9.87198e-07
-2.64287e-08
-1.01555e-06
-4.41902e-05
2.34444e-06
2.0331e-05
2.15124e-05
-3.85316e-07
-9.33096e-06
9.71137e-06
0.000210814
-0.000296759
0.000646975
-0.000561036
6.57508e-06
-5.17276e-05
3.40532e-05
1.10902e-05
-3.07692e-05
-4.11187e-05
-2.43213e-05
9.61943e-05
-2.10057e-05
-8.86862e-05
2.93202e-05
8.03571e-05
-9.35545e-05
0.000138076
-0.000125248
8.07223e-05
1.12425e-05
-1.73746e-05
1.4035e-05
-7.91053e-06
1.13453e-05
-1.4249e-06
8.97038e-06
-1.88986e-05
0.000107603
-0.000121155
1.30246e-05
5.24059e-07
4.06405e-05
-4.73289e-05
-5.64178e-06
1.23245e-05
-9.42781e-06
9.24744e-06
-1.39935e-05
1.41653e-05
0.000368345
6.42994e-05
-0.000208365
-0.000224284
-1.66414e-05
-2.2787e-05
-4.63591e-06
4.40627e-05
-3.92134e-07
3.10965e-05
-3.07087e-05
0.00031367
0.000389
-0.000558383
-0.000144291
-1.17931e-05
1.62585e-06
1.6535e-05
-6.36923e-06
8.73623e-06
-1.07839e-05
-2.70741e-06
4.74492e-06
-0.000123176
0.000229077
-0.0001137
7.79163e-06
9.01122e-07
-8.37506e-06
1.01286e-05
-2.65574e-06
0.00122228
0.00164721
-0.000803798
-0.00206568
4.9468e-05
1.60744e-06
-7.48906e-06
-4.35885e-05
-4.80271e-05
1.9871e-05
-8.12457e-06
3.62781e-05
1.81929e-05
4.25619e-06
-2.49138e-05
2.46113e-06
-0.00320547
0.0026663
-0.00164956
0.00218879
2.93343e-05
-1.34501e-05
-1.86762e-05
2.7785e-06
-0.000392587
0.00161488
8.90301e-06
8.79506e-05
-8.97941e-05
-7.07078e-06
-0.000439017
-0.000169707
0.00080939
-0.000200669
-6.40486e-06
7.74687e-06
7.79309e-05
-7.92833e-05
0.00147268
-0.000630223
0.000218662
-0.00106111
5.44651e-05
2.78462e-05
-8.23212e-05
-1.71144e-05
7.64921e-06
5.20339e-06
4.26044e-06
3.19946e-06
-1.43666e-05
-1.52825e-05
2.64479e-05
1.51032e-05
3.62952e-05
-4.7014e-05
-4.38837e-06
0.00013598
-0.000179816
0.000118537
-7.47071e-05
1.48356e-05
-6.74597e-06
-8.09937e-06
7.21751e-05
-0.000479681
0.000407501
-0.000109267
6.82194e-05
4.51392e-05
-4.09603e-06
-5.3873e-07
3.30265e-07
-6.72353e-06
6.93119e-06
0.0010801
6.62774e-06
-3.18786e-05
2.52486e-05
2.54468e-05
-2.64707e-05
-1.69299e-05
1.79509e-05
-2.24312e-05
7.04036e-07
-5.05195e-05
7.22442e-05
-2.15502e-05
0.0010311
-0.000863677
-0.000145867
7.21477e-05
-7.55285e-05
-4.20519e-06
7.57985e-06
-1.39629e-05
-1.41418e-05
-7.95864e-06
3.60611e-05
-0.000449122
0.000597985
0.000504104
-0.000652957
-1.13141e-05
-8.93815e-06
-1.19307e-05
3.21705e-05
-8.90701e-06
-2.64117e-05
1.357e-05
2.17365e-05
0.000361855
0.000869378
-0.0003914
-0.000839824
-2.52433e-05
4.99388e-05
-8.62071e-05
6.15044e-05
0.000108599
-9.87949e-05
-0.000130457
0.000120648
0.00011445
-9.68378e-05
-5.37298e-05
3.61066e-05
3.29462e-05
-0.00011286
-3.76088e-07
8.0282e-05
5.74594e-05
5.4504e-05
-0.000255645
0.000143674
3.38251e-06
4.40736e-05
-6.89352e-05
2.14698e-05
-7.12911e-06
-9.75991e-07
-1.74628e-06
9.85046e-06
-3.78037e-06
0.000313855
-7.58998e-05
-0.000234179
-2.4927e-05
3.23805e-05
3.36511e-06
-1.08207e-05
-0.000153902
3.11419e-05
0.000122757
-0.000235614
7.99547e-05
7.26055e-05
8.30447e-05
-3.81892e-05
2.80002e-05
4.42917e-05
-3.41194e-05
0.000125898
-6.56262e-05
-7.7156e-05
1.68774e-05
-4.50181e-07
-5.84957e-06
-7.13916e-06
1.34302e-05
-0.000120909
6.42189e-05
0.000161314
-0.00010463
8.80697e-05
4.23451e-05
-3.06551e-05
-9.97686e-05
3.19218e-05
-5.36558e-05
-9.91824e-05
-1.07043e-05
3.02532e-05
1.68712e-05
-3.64214e-05
0.00298553
0.000904903
0.000621152
-0.00451039
-7.22674e-06
9.68474e-08
9.75981e-05
-9.42009e-05
1.89446e-05
-2.2357e-05
0.000152429
-0.00141676
0.00085577
0.000408566
4.37132e-07
-0.000275059
-3.14546e-06
0.000277762
-5.59943e-05
5.23839e-06
8.16329e-05
-3.08839e-05
-2.27465e-05
2.65263e-05
-1.3417e-05
9.62918e-06
9.69255e-05
5.54894e-05
-0.000212764
6.03435e-05
-2.09477e-05
7.28737e-05
-5.19333e-05
1.39551e-05
-4.36837e-06
8.41578e-06
-1.80165e-05
3.56141e-06
-1.25904e-05
1.31889e-05
-4.16923e-06
0.000101515
9.96287e-05
-0.000173519
-2.76394e-05
-5.73542e-06
5.51599e-05
6.21709e-06
-5.56502e-05
-9.09887e-06
5.08169e-06
6.39766e-05
-5.99661e-05
0.000176342
0.000157204
-0.000142206
-0.000191348
-0.000155756
2.49287e-05
0.000137552
-6.73069e-06
0.00180751
0.00156092
-0.000900865
-0.00246745
2.39101e-05
8.67772e-07
-0.000180543
-3.33866e-05
4.92368e-05
-1.58536e-05
0.000186296
-0.00014038
-9.46202e-05
4.86959e-05
2.64224e-05
4.3506e-06
-4.39601e-05
1.31752e-05
0.000799355
-0.000176878
0.00118505
4.21021e-05
-2.91357e-05
-2.72921e-05
1.43229e-05
-0.00136063
0.00159684
-0.00149624
0.00126005
-0.000589297
1.01786e-05
6.98393e-06
0.000572134
7.36528e-05
-0.000135524
-6.55158e-05
0.000127378
0.000137683
-0.000445708
0.000400026
-9.20117e-05
-1.38022e-05
3.1304e-05
-1.51348e-05
-2.38061e-06
-7.40045e-06
-4.466e-05
1.27109e-05
3.93346e-05
6.16803e-05
-3.32504e-05
-1.91347e-05
-9.29971e-06
0.000210198
2.22493e-05
4.12391e-05
-4.12708e-07
-6.30894e-05
-3.99231e-05
-0.00121568
0.000608104
0.000647497
0.000440092
9.0318e-05
-8.69382e-05
-0.000443479
-9.05192e-06
-5.2192e-06
-1.65533e-05
3.08217e-05
6.11336e-05
-4.54055e-05
4.81888e-05
-6.39191e-05
6.43742e-05
0.000170746
2.56571e-05
-3.67605e-05
1.11003e-05
-6.1276e-05
6.47987e-05
1.06935e-05
-1.42208e-05
-0.000153089
5.02752e-05
0.000141478
-3.86697e-05
-4.46131e-06
2.92935e-05
4.49783e-06
-2.93312e-05
7.62477e-05
-3.86932e-05
1.79214e-05
-5.54819e-05
-3.77623e-05
-7.21973e-05
3.56246e-05
7.43284e-05
-0.000227761
9.5934e-05
7.14184e-05
6.03966e-05
0.00154191
0.000433048
-0.000414032
2.07253e-05
-7.66007e-06
2.31965e-06
-1.53951e-05
8.77778e-05
-0.000469128
0.000381406
-6.08707e-08
3.22187e-05
-2.00076e-05
-2.15529e-05
9.3407e-06
-8.09607e-05
7.10073e-07
7.9087e-06
7.23373e-05
2.45677e-05
-6.59179e-05
4.13431e-05
-4.2255e-05
4.72581e-05
0.000118287
-0.000123298
3.2046e-05
2.2267e-05
-3.71205e-05
-1.71954e-05
-3.04056e-05
4.43589e-05
5.97521e-06
-1.99351e-05
-0.000390537
6.16813e-05
0.00041663
-0.000643417
-0.00046861
0.000688622
0.0004234
2.17669e-05
6.81491e-07
2.69739e-05
-4.9431e-05
-0.000108074
-5.63982e-05
-0.000478952
-0.000261092
4.24138e-05
-4.69103e-05
0.000265578
-4.52539e-05
-1.20735e-06
2.47596e-05
2.16994e-05
2.75213e-05
-2.36455e-05
-0.000105646
0.000101766
-3.94921e-05
0.000124382
7.91193e-05
-0.000164017
9.37862e-05
-0.000394079
-9.02506e-05
8.93835e-05
-3.87635e-05
-7.87812e-05
2.81547e-05
-4.59823e-05
-1.13315e-05
4.56645e-05
1.1642e-05
1.22082e-05
3.14798e-06
-2.34858e-05
8.11998e-06
7.10757e-05
8.92443e-05
-3.19934e-05
-0.000128335
2.71764e-05
0.0011068
0.000389068
-0.00152292
5.97301e-05
-6.28569e-05
-9.29386e-05
9.60599e-05
0.00070919
-0.000297367
-0.000253952
-0.000157876
0.000101029
0.000139546
0.000100144
4.27485e-05
-5.69186e-05
-8.59829e-05
5.97762e-05
-5.63454e-06
-1.28414e-05
-4.13047e-05
-1.36025e-05
1.03612e-07
1.34978e-05
5.69995e-05
-6.68952e-05
-3.14684e-05
3.20134e-05
1.1142e-05
-1.16889e-05
-4.43462e-05
-7.39837e-06
2.02741e-05
5.02942e-06
2.84597e-06
-7.34134e-06
-5.34908e-07
-3.66602e-06
-3.17202e-06
1.72725e-07
6.66385e-06
3.49093e-05
4.77017e-06
1.53752e-05
-5.50572e-05
3.80187e-05
-0.000214591
-3.15784e-05
0.000208142
-4.51974e-05
2.94929e-05
-7.41459e-06
2.31165e-05
-4.529e-05
4.38457e-05
-7.10724e-05
7.25005e-05
0.00074683
-0.00131764
-0.00015304
0.000723855
-0.00167457
-0.00212679
0.00257315
0.00122822
1.49261e-05
-9.28251e-05
-2.31827e-06
8.02126e-05
4.62275e-05
-5.56671e-05
3.77332e-05
0.000203244
-0.00328362
0.00381862
-0.00387167
-0.00572843
0.00666551
-1.3649e-06
2.70415e-05
-1.96907e-05
-5.99348e-06
-2.57547e-05
1.66644e-05
-1.97393e-05
2.88198e-05
2.55181e-05
5.99815e-05
-2.55418e-05
-5.9962e-05
-2.30378e-05
3.11504e-05
1.07576e-05
-1.88773e-05
5.37083e-06
-6.00275e-06
6.31082e-07
-1.8566e-06
8.64249e-05
-2.0847e-05
0.000111216
-0.000176804
-0.000113707
-6.98167e-05
-0.000101265
0.00028478
1.30435e-05
-2.20816e-06
-2.67659e-05
1.59197e-05
-1.15337e-05
5.28039e-05
5.35457e-05
-9.48212e-05
6.08781e-05
9.30509e-05
-8.23336e-05
-7.16031e-05
-7.29818e-06
2.37899e-05
3.1225e-05
-4.77181e-05
2.70436e-05
3.10806e-06
-1.86597e-05
-1.14929e-05
-2.1473e-05
6.00346e-05
-0.000104808
6.62443e-05
-6.61229e-06
-7.90061e-07
1.39866e-06
-0.000164686
6.09149e-05
-1.54335e-05
0.000119196
3.10911e-05
-0.000176092
-6.8469e-06
0.000151843
8.38131e-06
-3.18933e-06
3.77217e-05
-4.2921e-05
2.45365e-05
-9.10059e-05
-0.00012261
0.000189075
0.00112783
-0.000545218
-0.000135043
-0.000447571
1.44785e-05
-1.11682e-05
1.30757e-05
-1.63867e-05
3.43875e-05
-4.22666e-05
1.3499e-05
-5.63671e-06
-8.97058e-06
4.29233e-05
-4.01041e-05
6.14149e-06
-9.69711e-05
-0.00037361
0.000842195
-0.000371615
-4.76878e-06
-2.30369e-05
1.49261e-05
1.28685e-05
2.04022e-05
2.10031e-05
-9.00389e-06
-3.24123e-05
1.10827e-05
-1.62845e-06
5.02317e-06
4.84806e-05
-0.000110588
7.34202e-05
-1.13236e-05
0.000457636
0.000670438
-0.00139851
0.000270433
-5.88851e-05
1.22929e-05
6.28761e-05
-1.62911e-05
-3.92057e-05
7.67317e-05
-4.37846e-05
6.25564e-06
-0.000184103
-0.000117682
0.000165997
0.000135778
-1.86042e-05
-0.000110235
0.000123501
5.3278e-06
6.6352e-06
4.05105e-05
0.000102541
-9.07317e-06
-1.36619e-05
-7.98152e-05
-0.000118218
-5.04671e-05
1.95614e-05
0.000149112
1.13299e-05
-1.48863e-05
-7.61312e-06
-5.8259e-06
-2.58109e-05
3.79358e-05
-6.30906e-06
-6.99578e-05
-2.38835e-05
9.84158e-06
8.39959e-05
9.51461e-08
-2.43778e-05
2.42784e-05
-0.000193054
-0.000520846
-0.000127515
2.66527e-05
1.96637e-05
1.79384e-05
-6.42585e-05
1.22733e-06
1.77747e-05
-1.90028e-05
0.000282584
-0.000376233
0.000183089
-8.94439e-05
7.8118e-06
1.29096e-05
-4.97218e-05
2.89988e-05
-0.000165898
-1.74187e-05
2.91072e-06
0.000180402
-2.14082e-05
1.65068e-05
-3.20724e-06
8.10741e-06
5.65497e-05
-4.50725e-05
6.97269e-06
-1.8453e-05
-5.51336e-05
6.76639e-05
-1.25373e-05
-0.000110202
5.52394e-05
3.34879e-05
-5.04915e-07
-0.000101635
4.6211e-05
5.59264e-05
-2.0991e-06
7.29399e-06
-5.19625e-06
-1.36156e-05
-3.41557e-05
4.28556e-06
4.34825e-05
9.81217e-08
-7.55459e-06
-1.24395e-05
1.98891e-05
-0.000336403
0.000426041
0.000241069
-0.00033071
0.00117285
-0.000334747
-0.000394144
-0.000443956
-0.000979787
0.00133445
-0.0011492
0.000794535
-3.05141e-05
5.48556e-05
-3.05771e-05
6.23443e-06
3.37914e-05
-4.33016e-06
7.4351e-06
-3.68978e-05
-0.000164456
8.76776e-05
1.41814e-05
6.25837e-05
4.00613e-05
2.08121e-05
-9.36519e-05
3.27762e-05
1.43503e-05
2.27683e-06
-1.86576e-06
-1.47619e-05
3.91408e-06
-3.23799e-06
9.7226e-07
-1.64903e-06
0.000612966
0.000428573
0.000131314
-9.0985e-05
-0.000157341
0.000461561
-0.000213254
0.000111151
-3.88159e-05
-4.85414e-05
-2.37991e-05
-9.84667e-06
3.72714e-06
4.11134e-06
2.00732e-06
4.47501e-06
1.35536e-05
-1.8029e-05
-6.29544e-06
1.19965e-05
-2.00297e-05
1.43198e-05
-2.69898e-06
-2.00701e-06
4.33941e-06
-1.6845e-05
1.45114e-05
-6.45673e-06
-0.000300107
-5.46274e-05
0.000361186
0.000559428
-0.000689766
0.000130338
0.000328237
-0.000802505
-0.000527699
0.00100196
-0.000141448
0.000215061
-0.000267524
0.000193906
5.0892e-05
2.13374e-05
-4.21139e-05
-3.01194e-05
0.00066187
0.000375687
-0.00132896
0.000291403
0.000149569
4.86104e-05
-0.000198175
1.80412e-05
0.000295895
6.77328e-07
-0.00031462
-1.71504e-06
1.94657e-06
-2.34147e-07
0.000649814
0.000758893
0.00127713
-2.1386e-05
-0.000746907
-0.000508838
1.80747e-05
5.95786e-06
0.00012883
-0.000152869
5.50047e-05
8.28701e-05
-0.000110158
-2.77178e-05
-2.28924e-05
1.02626e-05
-1.35215e-05
2.61502e-05
0.00126587
-0.000391165
0.000951597
-0.00182629
0.000421849
-0.000467156
0.000127329
-8.20307e-05
-0.00452887
0.00526526
0.000207742
-0.000131676
-3.81966e-05
-0.0002616
0.000431468
-5.19245e-05
0.000160415
0.00031382
-0.000422314
-8.11168e-05
-3.8824e-05
-1.1711e-05
0.000131643
-5.53799e-05
0.000263812
-0.00125274
0.00104431
0.00102186
0.000619698
0.000943092
0.000188909
-0.00118738
9.90164e-05
8.71442e-06
-1.36494e-05
-9.40924e-05
-0.00204197
0.00177382
0.000739141
-0.000470987
1.83954e-07
4.70114e-07
-5.96395e-07
-5.81243e-08
0.000439829
-0.000125758
-0.000385834
7.17518e-05
1.20075e-05
-2.2713e-05
9.04374e-05
6.94002e-05
-5.61503e-05
-0.0001037
6.93404e-05
3.93293e-05
9.81577e-06
-0.00011849
0.0010291
-0.000315229
-0.000475557
-0.000238319
1.94697e-05
-8.88697e-06
-1.20631e-05
1.4789e-06
0.000364476
-0.000273391
0.000446652
-0.000537754
2.47168e-05
-1.35732e-05
2.62522e-05
-3.73985e-05
3.43739e-07
-1.01988e-06
8.59618e-07
8.31426e-05
0.000231138
-0.000246774
-6.75118e-05
-4.9341e-06
-1.37984e-05
2.78695e-06
1.59425e-05
0.000167685
0.000240062
-0.000183149
-0.000224604
1.89071e-05
-2.33347e-05
-1.32458e-05
1.76728e-05
-1.71116e-05
-2.2691e-06
1.36004e-05
5.77849e-06
-1.23419e-07
-5.95744e-07
1.94097e-05
-1.86919e-05
8.53577e-06
0.000158828
-3.0641e-05
-0.000136728
0.000569645
0.001657
-0.00191306
-0.00031351
0.00013614
-5.10661e-05
9.18177e-06
-9.42594e-05
0.000143409
-1.7026e-05
-1.16859e-05
-0.000114713
-8.92904e-06
-3.75899e-05
3.14118e-05
1.51056e-05
-1.74792e-05
4.20217e-05
1.73885e-05
-4.19333e-05
3.99791e-08
4.46877e-07
1.0183e-06
-1.50637e-06
5.1902e-08
1.57744e-06
-1.59017e-06
-4.87708e-06
4.21369e-06
-2.5647e-06
3.22688e-06
0.00023206
-0.000425962
-0.000257317
0.00045121
3.66395e-05
-9.55658e-05
-2.47635e-05
8.36795e-05
-7.59218e-05
0.000152349
2.80217e-05
-0.000104453
-2.10284e-05
1.68414e-05
-2.60821e-05
3.02672e-05
-5.42226e-05
-4.82522e-05
0.000125056
-2.25974e-05
-6.60993e-08
7.31968e-06
-6.96414e-06
-2.89817e-07
-2.24451e-05
-3.42557e-06
2.22687e-05
3.59193e-06
0.000446309
-0.000462578
0.000203155
-0.000186889
2.56613e-05
2.34798e-05
-7.01715e-05
0.000626904
-0.000103964
0.000169178
-0.000692127
2.66543e-06
-6.8474e-06
1.99781e-05
-1.57974e-05
0.000232658
-0.000410183
0.000112807
6.47119e-05
0.00224514
-0.00230967
0.000575806
-0.000511276
0.000152663
-0.000213994
0.000610788
-0.000549468
6.08547e-05
-6.19248e-05
1.06465e-06
7.03791e-06
-1.32066e-08
2.08407e-07
-7.23505e-06
2.89358e-05
-2.26731e-05
1.941e-05
-2.56737e-05
-2.52341e-05
-3.11198e-06
7.78123e-06
2.05638e-05
8.35204e-05
-3.04669e-05
-3.36418e-06
-4.96998e-05
4.11432e-06
2.91914e-06
-0.000217608
0.000259378
0.000226778
-0.000268552
-5.22813e-07
6.97038e-06
-6.2238e-06
-2.25284e-07
2.1743e-06
1.57775e-06
-3.75228e-06
-1.1972e-05
-1.11534e-05
2.87526e-06
2.02488e-05
5.68835e-06
-1.30776e-06
-4.90466e-06
3.54646e-05
-4.35566e-05
-3.05036e-05
3.8594e-05
-1.48883e-05
4.60886e-05
7.18209e-06
-3.83927e-05
-0.000184157
-5.19921e-05
0.000139169
9.69711e-05
1.41483e-05
-2.29915e-06
-5.93834e-05
4.75272e-05
6.81245e-05
-4.66711e-05
-6.84892e-07
-2.07763e-05
-1.41203e-05
-1.76116e-06
1.66865e-05
-8.08611e-07
-2.40814e-05
-1.65226e-05
1.21491e-05
2.84537e-05
5.13796e-06
-5.04161e-06
4.99195e-05
7.33961e-05
-6.61163e-05
-5.72065e-05
2.3723e-05
1.68354e-06
-1.80898e-06
-2.35993e-05
-0.000360296
-0.000221605
0.000429598
0.000152299
1.04647e-06
3.53025e-05
-1.31157e-05
-2.32353e-05
5.38365e-06
-1.22217e-06
-1.30458e-06
1.54962e-06
1.68449e-05
-1.70908e-05
-1.46973e-05
1.23663e-06
1.21554e-05
-1.46572e-05
-7.52977e-06
5.21991e-05
-3.00162e-05
-3.20585e-05
1.90127e-05
-4.50897e-05
5.81328e-05
2.43443e-05
-2.45602e-05
-3.34491e-06
3.55884e-06
-2.22096e-05
6.60969e-06
4.26981e-05
-2.71007e-05
-0.000268685
0.000247474
-0.000835013
0.00085622
-6.13248e-05
0.000238515
-8.56596e-05
-9.15461e-05
5.05638e-05
-1.6829e-05
-2.52568e-05
-8.47949e-06
2.85637e-05
-4.73365e-05
-1.14518e-05
3.0222e-05
-3.32821e-05
-7.52761e-05
1.96202e-05
8.89367e-05
0.000614338
-0.000525311
-0.000566869
0.000477836
-2.43652e-05
-7.91514e-06
3.2279e-05
-3.17968e-06
3.14381e-05
-2.82666e-05
-0.000139758
9.04038e-05
0.000125216
-7.587e-05
-1.06126e-05
-0.000127847
1.22598e-05
0.000126191
0.000159595
-0.000117093
3.29261e-05
-7.54355e-05
-3.97861e-05
-0.000255453
-0.000303544
0.000598777
-0.000169571
5.45008e-05
0.000272953
-0.000157887
-1.42644e-05
-1.15638e-05
2.5827e-05
3.83265e-05
1.0823e-05
-3.44683e-05
-1.46826e-05
2.30548e-05
4.64285e-05
1.64432e-05
-8.59371e-05
2.27816e-05
-2.09478e-06
1.22099e-05
-3.29053e-05
1.12766e-05
-7.68996e-06
-1.90427e-05
1.54472e-05
0.000241378
-0.000263784
4.64127e-05
-2.40171e-05
-2.33838e-05
5.93168e-05
3.38726e-05
-6.9812e-05
0.000156887
-0.000152077
-4.81489e-06
0.000255157
6.94027e-05
-8.31891e-05
-0.000237553
0.000402775
-0.000176012
1.07804e-05
7.19525e-07
-3.95281e-07
-3.24822e-07
-1.11257e-06
5.18733e-07
5.92955e-07
-2.31201e-06
4.03403e-06
-5.50835e-06
3.78517e-06
2.11531e-05
-1.39175e-06
-1.57811e-05
-3.98103e-06
6.398e-05
0.000150172
-0.000135222
-7.89378e-05
6.67077e-05
-9.02603e-05
-1.03928e-05
3.39406e-05
2.39368e-07
-1.15374e-05
5.95179e-07
1.07022e-05
-7.52274e-05
8.08623e-06
6.71317e-05
7.05524e-07
1.7147e-07
-8.77254e-07
6.55709e-05
0.000168838
-0.000173589
-6.08369e-05
5.91629e-05
-5.49894e-06
-1.53386e-05
-0.000322116
0.000266563
-0.000208238
-7.73674e-05
3.54025e-05
0.00038752
-0.000345566
2.72228e-06
2.44405e-05
-3.65407e-05
9.3759e-06
5.21456e-05
-4.32197e-05
-2.67992e-05
1.78716e-05
0.000445721
6.68639e-05
-0.000408989
-0.000103611
0.00029647
7.09639e-05
-4.8802e-05
-0.000318637
2.57324e-05
-3.32537e-05
7.51186e-06
1.21987e-05
-2.02026e-05
6.76926e-06
1.23165e-06
1.27007e-05
8.76115e-06
7.20803e-06
-2.86714e-05
5.82675e-05
-5.78639e-05
8.24817e-05
-8.28977e-05
-5.16618e-05
-0.00028008
5.04675e-05
0.000281266
-3.75951e-05
1.6113e-05
-8.867e-06
3.03469e-05
1.72076e-05
-4.5356e-05
-6.31687e-05
9.13143e-05
-3.58339e-05
2.84479e-05
3.97305e-06
3.4107e-06
1.7965e-05
-7.35889e-05
3.01956e-05
2.54143e-05
0.00031249
0.000282511
-0.000110207
-0.000484802
1.57441e-07
-2.34439e-05
-1.3649e-06
2.46503e-05
0.000112352
9.11167e-07
-9.06413e-05
-2.26335e-05
-1.9573e-05
-4.37299e-06
3.24326e-06
2.07019e-05
2.36804e-05
-2.28499e-05
-6.74015e-07
2.90812e-06
-3.88505e-06
-7.2461e-05
7.34357e-05
-6.81536e-05
1.00836e-05
0.000124183
-6.61175e-05
8.37001e-06
1.75335e-05
-1.84284e-05
-7.48387e-06
-9.33361e-07
-2.55629e-06
1.19089e-06
2.29794e-06
-5.12297e-05
3.81044e-05
-9.10252e-06
2.22201e-05
5.4848e-05
-4.78647e-05
6.90497e-06
-1.38898e-05
-1.45034e-05
8.50081e-07
-1.01511e-05
2.38033e-05
6.0956e-06
1.90199e-06
2.2245e-05
-3.02447e-05
2.39274e-06
-2.37839e-05
2.13902e-05
8.05592e-07
-1.37754e-06
-3.62439e-07
2.23789e-05
2.46616e-06
-2.24532e-05
3.12905e-07
2.94714e-05
-1.84973e-05
-1.12945e-05
-1.06613e-05
-1.51807e-06
1.21786e-05
-9.57224e-05
4.74954e-05
3.10877e-05
1.71358e-05
3.24324e-06
-2.07546e-05
2.07612e-05
-3.25166e-06
-0.000297049
9.45259e-05
-6.35207e-05
0.000266036
-5.42607e-06
-6.85265e-05
0.000111536
-3.7591e-05
-0.000148043
-0.000407941
0.000766791
-7.21851e-05
-1.83972e-05
-5.14366e-06
2.3007e-05
6.91487e-05
-3.80596e-05
-5.40983e-05
-9.84422e-06
6.64514e-06
-1.82987e-05
2.14969e-05
-0.000226205
0.000205524
-7.36387e-05
9.43168e-05
-4.15827e-05
4.51905e-05
3.13113e-05
-3.49205e-05
1.48537e-06
-6.80863e-07
2.32717e-06
-3.16047e-06
2.71518e-06
-1.88384e-06
-6.27829e-06
-3.60135e-05
2.19881e-05
2.03014e-05
0.000187307
-5.37547e-05
1.14404e-05
-0.000145001
-4.91457e-06
1.60774e-05
-1.11642e-05
-1.27171e-05
2.36258e-06
1.03457e-05
-2.37775e-05
-1.31809e-05
1.50573e-06
3.54511e-05
2.48109e-06
1.17097e-05
-1.21705e-05
-2.02167e-06
-1.37622e-06
1.77533e-05
3.0541e-06
-1.94379e-05
-4.1366e-05
-1.00713e-05
7.41332e-06
4.40117e-05
-0.000589521
-8.39308e-05
-0.000210217
0.000883663
-1.61398e-05
5.16831e-05
-3.00604e-05
-5.48535e-06
-3.55289e-06
-9.82105e-05
7.05836e-05
3.11741e-05
-2.79524e-06
5.10941e-07
-7.06629e-06
9.35046e-06
-3.30323e-05
-6.81214e-06
3.98377e-05
-6.51629e-06
2.64028e-05
-2.48034e-05
9.38554e-06
2.35915e-05
-1.44209e-06
-3.15372e-05
1.23771e-05
-1.25241e-05
-7.30599e-06
7.45202e-06
2.71965e-06
-4.73744e-07
-2.24653e-06
-1.76235e-05
5.68399e-05
-3.1857e-05
-7.36919e-06
-1.3733e-06
8.6508e-06
3.4864e-06
-1.07646e-05
2.20203e-05
-6.29969e-05
3.31334e-05
7.83288e-06
-1.42122e-05
4.42879e-05
-4.47588e-06
-2.56005e-05
-1.72406e-05
-5.62926e-06
1.84956e-05
4.37285e-06
-5.16936e-06
6.64811e-06
-6.41542e-06
1.72783e-05
-1.44606e-05
4.24161e-07
1.42139e-05
5.19057e-06
-2.03762e-05
9.69728e-07
-1.06381e-05
2.97541e-05
-1.83962e-06
-2.34709e-05
-0.000316035
0.000342771
-3.26899e-06
-4.86415e-05
7.60863e-05
-7.69179e-05
4.94683e-05
4.24264e-05
5.52598e-06
-5.02315e-05
2.26858e-06
-3.08766e-05
-9.02836e-06
2.41261e-05
1.57781e-05
5.24701e-06
5.7898e-06
-2.98798e-05
1.88414e-05
-1.54163e-05
-1.00117e-06
1.64158e-05
-0.000844798
-9.49748e-05
0.000589751
0.000350038
1.13855e-05
-2.0309e-05
1.55015e-05
-6.58681e-06
5.80665e-05
0.000165656
-0.000261267
3.75372e-05
4.37114e-05
-3.64517e-05
-0.000270746
0.000263474
-1.46996e-06
5.5271e-06
-1.94944e-06
-2.10812e-06
1.33703e-05
-0.000127584
4.61603e-05
6.80468e-05
4.71409e-05
-1.70691e-05
1.44415e-05
-4.45171e-05
9.80449e-06
-3.27968e-05
-1.74059e-05
4.03963e-05
4.43897e-05
4.30909e-05
-9.902e-05
7.60627e-05
0.000218469
-0.000236474
4.31073e-06
-9.29493e-07
-4.85176e-06
4.51459e-05
-1.39016e-05
-1.98376e-05
-1.14172e-05
-6.87225e-05
7.38793e-05
1.92476e-05
-2.44121e-05
7.72862e-07
-0.00024569
0.000320966
0.000116805
-5.60736e-06
-2.94938e-05
-8.17241e-05
-1.63181e-05
1.37965e-05
-1.28967e-05
-5.20428e-06
2.08308e-06
-1.18799e-05
1.49927e-05
-1.1867e-05
3.29267e-05
-2.89809e-05
7.91097e-06
-6.94504e-06
3.0427e-06
8.333e-06
-4.43168e-06
-8.50954e-05
8.44721e-05
-8.56462e-05
8.62525e-05
-6.11023e-05
-4.42066e-05
-2.28975e-05
0.000128199
4.66356e-06
-5.40317e-06
-7.21867e-06
7.95798e-06
0.000175856
-3.93104e-05
0.000143679
-0.000280236
1.24231e-06
1.62494e-05
-1.28285e-05
-3.08429e-05
-2.62397e-05
1.42311e-05
4.28496e-05
-2.04551e-05
1.80928e-05
-8.02857e-05
8.26405e-05
0.000118617
-0.000237014
-8.06628e-06
0.000126456
-9.4566e-06
-5.47823e-06
1.49338e-05
-2.68308e-05
-8.32615e-06
3.63987e-05
2.42387e-05
-3.31702e-05
0.000127544
-7.8633e-06
3.43934e-05
-0.000192725
0.000166186
3.36261e-05
1.52735e-07
-3.37811e-05
-8.93241e-05
-3.26396e-05
2.39274e-05
9.80263e-05
0.000801541
-0.000884562
-3.90744e-05
0.000122085
1.50871e-05
5.26329e-06
-1.54226e-05
-4.92998e-06
6.24074e-06
1.09911e-05
-1.72324e-05
-8.62145e-05
8.4142e-05
2.06694e-06
-0.00028564
-0.000264524
0.0004115
0.000139602
-8.1011e-05
5.10119e-05
-1.82433e-05
4.82377e-05
-1.4525e-06
-3.48047e-06
4.93202e-06
-0.000114073
-1.98684e-05
0.000132152
1.78211e-06
0.000110994
1.7518e-05
-6.01203e-05
-6.83977e-05
-0.000599965
-0.00125151
0.00118808
0.000663384
-0.000348365
-0.000394396
-0.000355871
0.00109863
0.000139969
0.000529558
-0.000485896
-0.000183647
0.000122609
1.66295e-05
-0.000139242
1.07444e-05
-0.000203562
0.000203199
-1.03897e-05
-1.00441e-05
0.000227988
-0.000203679
-1.42736e-05
0.00015719
-0.000179202
-1.53435e-05
3.7349e-05
-2.85633e-05
-4.37838e-05
7.11961e-05
1.14724e-06
-5.86308e-05
6.86678e-05
5.11633e-05
-6.12127e-05
-2.85695e-05
1.23565e-05
1.14339e-05
-4.10114e-05
9.54961e-06
-1.71492e-05
4.85997e-05
-8.60119e-05
4.69978e-06
8.13078e-05
-1.53386e-05
0.000133776
2.50063e-05
-0.000143452
-1.17833e-05
-0.000126137
9.38505e-05
4.40639e-05
5.50762e-06
2.14421e-05
-8.7606e-06
8.22196e-05
-0.000120969
0.000161352
-7.24281e-05
0.000181602
0.000276824
-0.000386012
0.000144571
8.8481e-05
-0.000316738
8.36803e-05
2.65619e-05
-2.275e-05
2.65382e-05
-3.0352e-05
7.55466e-05
7.53383e-05
-0.000150888
0.000232699
0.00107914
-0.00121006
-0.000101788
-0.000421073
0.000124303
7.9204e-06
0.000288851
0.000239423
0.000156934
-0.000260783
-0.000135588
5.30009e-05
-9.78774e-05
-2.68304e-05
7.16993e-05
9.3206e-06
-3.99967e-05
2.82766e-05
2.3974e-06
3.56818e-05
-0.000332907
-8.32046e-05
0.000380417
0.000382463
0.000632021
-0.0012098
0.000195424
-3.14517e-05
6.99178e-05
-5.46418e-05
1.61737e-05
0.000349544
-1.80674e-05
-0.000285077
9.92668e-05
-0.00020997
5.58394e-05
5.48543e-05
-4.56683e-05
1.29995e-05
3.51922e-06
2.91474e-05
0.000599329
-0.00363112
0.000532266
0.00249955
2.06971e-05
1.95661e-05
-9.3914e-05
5.36362e-05
-0.0003312
-3.89771e-05
0.000309324
6.08406e-05
-0.000150881
0.000307469
-0.000773592
0.000617005
4.20934e-06
-3.61651e-06
-4.06818e-06
3.47434e-06
-6.65795e-05
-0.000292737
0.000325592
3.37124e-05
-2.12102e-05
-2.56415e-05
1.40196e-06
4.54467e-05
-1.71226e-05
-1.89117e-05
-1.06848e-06
3.70986e-05
3.58376e-05
1.32524e-05
-4.19194e-05
-7.17172e-06
7.05217e-05
1.33593e-05
-4.80434e-05
-2.74559e-05
-1.63004e-06
-9.19014e-06
3.82734e-05
5.0913e-06
1.38421e-05
7.70608e-06
-2.66426e-05
1.81218e-05
-4.26569e-05
-1.56537e-05
4.01862e-05
9.31928e-05
-4.52344e-05
-7.38678e-05
2.59033e-05
-5.67879e-06
6.05053e-06
-3.74144e-07
-0.000256445
0.000205636
-0.000112777
0.000163574
-2.57897e-05
-2.21281e-05
0.000141105
-2.29905e-05
1.37364e-05
1.43415e-05
1.3408e-05
-2.29063e-05
-4.98223e-06
1.44796e-05
-1.05145e-05
4.37444e-05
3.48876e-05
7.70443e-05
-0.000102036
-2.02478e-05
-2.68771e-05
2.27455e-05
-1.89948e-05
2.31177e-05
-6.61319e-06
6.8441e-05
-6.1835e-05
-0.000100587
0.000127205
7.15054e-05
-9.81302e-05
-1.68816e-05
-5.603e-06
2.11972e-05
1.28497e-06
-2.90892e-05
-9.55183e-06
-2.84063e-06
4.14689e-05
-7.09923e-06
-3.31041e-05
-6.68911e-05
0.000107083
4.22744e-06
3.94792e-06
-8.17648e-06
2.54895e-05
-2.98188e-05
4.32476e-06
-9.29839e-06
-2.22687e-06
1.15237e-05
1.79653e-05
8.75955e-06
-2.67322e-05
1.98042e-05
-6.33794e-05
-1.37199e-05
5.72812e-05
-0.00010731
1.64294e-05
-2.33386e-05
0.000114204
0.000116363
1.89416e-05
-0.000296218
0.00016091
-2.37291e-05
-3.20806e-05
1.41021e-05
4.17029e-05
-3.91487e-05
9.03987e-05
3.87032e-06
0.000124059
-0.000153575
2.56348e-05
-9.89517e-05
-3.39333e-05
0.000239066
-0.000106184
-6.92817e-06
-2.47758e-05
8.28714e-06
2.34158e-05
1.20501e-05
6.215e-06
-5.38936e-06
-1.28767e-05
2.86074e-06
2.96371e-06
-5.82584e-06
-2.13415e-05
7.94473e-05
-5.50873e-05
-3.03311e-06
-2.00437e-06
-1.57077e-05
2.90841e-05
-6.5139e-06
3.1998e-05
-0.000161317
-0.000233501
0.000397698
-2.98951e-05
-4.23061e-05
6.41987e-05
7.99909e-06
3.08177e-05
-3.81714e-05
-1.41999e-05
2.15515e-05
1.64716e-05
2.82578e-05
-1.61991e-05
-2.85315e-05
3.71101e-05
-6.56562e-05
3.15705e-05
-3.03518e-06
0.0014228
0.00166686
0.00429747
-0.00638547
0.00015297
-0.000142233
-5.63212e-06
-3.94427e-05
2.45952e-06
4.26119e-05
1.20123e-06
3.62808e-05
-6.89468e-07
-3.67944e-05
5.69935e-06
6.00583e-06
3.46703e-05
-4.63764e-05
-3.80293e-05
2.55987e-05
-3.2875e-06
1.57069e-05
-0.00171486
0.00056015
-0.000503566
0.00166342
4.51086e-05
-6.78781e-05
-2.35801e-05
4.63448e-05
4.00509e-05
6.72896e-08
-3.82625e-06
0.000127859
-3.50699e-06
-0.000197493
7.31269e-05
-1.92682e-05
-6.6499e-06
2.98161e-05
-3.89918e-06
1.1871e-05
5.87272e-06
-1.22389e-05
-5.5059e-06
4.53498e-05
-3.98224e-05
-4.32848e-06
4.87197e-05
-8.28619e-06
-4.06256e-05
1.90743e-07
-1.83286e-05
2.45989e-05
2.01586e-05
-2.64316e-05
2.25583e-05
9.13593e-06
-6.13454e-05
2.96357e-05
3.77677e-05
-1.48896e-06
-2.76935e-06
1.59614e-05
8.61164e-06
-2.18049e-05
5.18111e-05
-7.62874e-05
7.44347e-05
-4.99617e-05
-0.000107513
-5.64047e-06
-8.98941e-06
0.000122128
-1.22911e-05
6.85282e-06
-2.44081e-05
2.98395e-05
-0.00032434
3.73429e-05
0.00013403
0.000152956
0.000178922
0.000232563
-0.000100466
-0.000311031
1.33211e-06
-5.08367e-07
-1.10291e-05
1.01933e-05
-8.79879e-05
8.46113e-05
7.00489e-06
-3.63291e-06
1.08156e-06
8.36659e-06
-9.44972e-06
4.27604e-05
-1.0118e-05
1.27049e-05
-4.18157e-06
2.3646e-05
-3.51512e-05
1.56716e-05
2.20642e-06
7.70959e-07
-2.97793e-06
-4.82117e-05
-1.20703e-05
4.54623e-05
1.48157e-05
4.17529e-06
-1.54116e-05
-1.2532e-06
1.24848e-05
-1.18592e-05
-2.00491e-05
1.06963e-05
2.05927e-05
-3.07739e-05
-0.000286615
0.000296785
-3.11562e-06
-1.39976e-05
0.000293537
2.52332e-06
-0.000122235
-0.000173832
-0.000973051
0.000161578
0.00045156
0.000359905
-1.27152e-05
-9.63304e-07
1.78489e-05
4.99242e-05
-2.03551e-05
-2.16356e-05
-7.93711e-06
-2.83257e-05
5.89573e-06
-8.01552e-05
0.000102579
-0.000149524
0.000242872
0.000138107
-0.00023147
5.74582e-05
6.15074e-05
-0.000110862
-8.1198e-06
2.96325e-05
-6.60368e-06
-2.3032e-05
1.60088e-05
-2.74194e-05
7.8267e-05
-6.68632e-05
1.65795e-05
-1.54686e-05
-1.24549e-05
1.13366e-05
1.1134e-05
-1.49687e-06
-8.04098e-06
-1.60022e-06
6.67246e-06
2.06881e-05
1.22086e-05
-1.07881e-06
4.13292e-05
-7.08391e-06
-0.000117342
8.30875e-05
0.000134981
-9.6656e-05
-4.98107e-05
1.14723e-05
-8.71453e-05
-9.29088e-05
0.00014313
3.69214e-05
2.71491e-05
0.000126213
1.7834e-05
-0.000171209
0.000202388
-9.99824e-05
-0.000137519
3.51043e-05
8.54456e-05
3.5882e-05
2.36139e-05
-0.000144952
4.17634e-05
1.88424e-06
7.65472e-06
-5.13068e-05
0.000239762
-2.4223e-06
-1.71577e-06
-0.000235635
-2.82427e-05
-0.000165252
-1.02127e-05
0.000203697
-5.10916e-07
2.90163e-05
-3.84498e-05
-5.43636e-06
1.4869e-05
-0.000175089
5.99631e-06
-0.000122029
0.000291116
-8.0939e-05
5.33609e-05
5.31632e-05
-2.55916e-05
0.00030707
-0.000512068
2.99023e-05
3.63096e-05
1.1254e-05
-7.57572e-07
-4.68156e-05
-1.80997e-05
1.57184e-05
-1.20703e-05
1.44496e-05
1.26288e-05
2.01219e-05
-5.5116e-05
2.2362e-05
0.000166425
-0.000214744
8.00986e-06
4.02977e-05
0.000811897
0.000958374
-0.000714186
-0.00105609
5.28777e-06
-7.14463e-06
1.15251e-05
-9.66963e-06
1.56827e-06
-3.4571e-06
-1.49907e-06
3.3863e-06
-4.32686e-05
0.000191459
-7.10384e-05
-7.7162e-05
6.04591e-05
-4.35736e-05
-1.60507e-05
-8.37055e-07
-1.93268e-05
-1.37259e-05
-1.24012e-06
3.42912e-05