/*--------------------------------*- C++ -*----------------------------------*\
| =========                 |                                                 |
| \\      /  F ield         | OpenFOAM: The Open Source CFD Toolbox           |
|  \\    /   O peration     | Version:  v2012                                 |
|   \\  /    A nd           | Website:  www.openfoam.com                      |
|    \\/     M anipulation  |                                                 |
\*---------------------------------------------------------------------------*/
FoamFile
{
    version     2.0;
    format      ascii;
    class       volScalarField;
    location    "1";
    object      Qdot;
}
// * * * * * * * * * * * * * * * * * * * * * * * * * * * * * * * * * * * * * //

dimensions      [1 -1 -3 0 0 0 0];


internalField   nonuniform List<scalar> 
108993
(
0
0
0
5.3276e-75
3.56257e-101
0
0
0
5.30683e-23
0
0
9.87039e-89
1.53286e-80
0
2.05042e-155
1.62573e-131
5.65102e-189
0
0
0
6.77168e-141
0
0
0
1.36195e-82
0
8.75522e-10
0
0
0
0.000966466
0
1.02722e-11
0
3.67784e-68
8.75498e-118
1.18345e-08
0
6.19443e-286
1.18218e-301
0
0
0
0
0
0
1.57909e-10
0
0
0
6.76587e-18
0
0
6.52036e-13
7.57142e-190
2.90831e-129
7.8232e-17
8.90854e-88
6.17954e-63
0
0
4.80066e-73
0
0
0
0
0
1.08701e-76
0
0
0
0
4.45182e-93
8.00555e-82
0
0.168552
0
9.95189e-168
2.25344e-26
0
6.65143e-89
0
0
3.69151e-80
0
5.78697e-146
0
3.06353e-96
3.41454e-93
0
0
0.0660632
5.28064e-88
4.49834e-107
8.43009e-88
5.55275e-132
0.000348583
0
0.00061106
5.8848e-08
1.55914e-82
0
1.13439e-133
0
0
5.02033e-85
1.52116e-101
3.36278e-53
0
0
1.04483e-245
3.30956e-82
0
2.25249e-258
1.25717e-43
0
0
0
0
0.000194527
0
0
0
5.07297e-69
0
7.88927e-142
0
3.8589e-96
0
5.80175e-47
8.08945e-120
0
0
0
0
0
1.43215e-48
8.49359e-60
3.16932e-103
6.31396e-151
4.55737e-65
1.97373
6.66938e-173
3.33107e-47
6.22771e-45
6.66909e-93
5.03435e-81
0
3.98641e-67
0
0
0
0
0
5.13663e-48
1.8253e-284
0
2.89194e-31
5.1778e-17
0
0
1.38334e-20
3741.11
0
0
0
0
0
0
1.96861e-53
0
1.00953e-124
0
4.34661e-66
0
0
0
0
1.20269e-46
0
8.59001e-165
0
6.06406e-32
1.85634e-70
8.78426e-138
0
9.06715e-42
0
0
0
0
9.16542e-28
2.57905e-86
0
0
2.20576e-76
0
0
0
1.26993e-68
1.61203e-105
0
0
1.30399e-38
0
0
0
0
2.02835e-47
0
0
7.18721e-90
0
0
4.47871e-270
5.49102e-81
4.96162e-145
3.69747e-27
0
1.69619e-15
0
1.12372e-285
0
1.71192e-272
0
0
3.98058e-31
2.47372e-29
0
0
8.84656e-274
0
0
0
7.07524e-20
1.1915e-16
2.20168e-22
4.04561e-58
0
0
6.63995e-05
0
0
2.57619e-29
0
4.34835e-126
0
0
1.97267e-22
0
723955
3.70315e-62
5.24299e-28
0
9.36562e-35
1.01881e-27
2.28862e-35
7.77506e-83
1.10004e-10
0
2.06445e-20
0
2.25096e-134
0
0
0
1.9912e-17
0
0
0
1.63613e-114
1.81786e-53
0
0
0
2.26296e-49
0.0268393
0
4.66422e-78
0
0
3.73747e-313
1.75044e-310
0
2.52322e-33
0
6.64217e-78
0
6.57692e-98
0
0
0
0
1.69726e-10
0
0
0.000170691
3.30328e-15
4.30345e-200
0
0
5.5082e-301
0
7.60077e-128
0
0
0
0
0
0
1.05637e-105
0
6.56584e-154
2.57718e-112
0
2.76849e-313
0
8.28708e-152
0
1.01472e-27
0
0
0
0
2.61003e-84
0
1.2256e-260
2.85649e-303
2.08648e-16
1.708e-81
0
0
0
1.29985e-29
0
8.02041e-130
2.73812e-31
1.37688e-76
1.12905e-38
2.16312e-32
1.14258e-25
0
0
0
0
0
0
0
0
0
7.90751e-17
0
0
0
0
0
0
0
0
0
0
0
0
1.63543e-32
0
0
6.10774e-30
0
0
6.45686e-260
9.15958e-310
2.11909e-121
0
0
0
0
4.96293e-116
5.45103e-34
1.17141e-308
0
0
7.63186e-306
0
0
0
0
0
1.17853e-233
0
0
0
0
0
2.62083e-156
0
0
0
0
3.17535e-148
4.59734e-24
0
0
0
3.02022e-25
0
0
0
0
6.41852e-82
4.04482e-273
8.29846e-177
0
0
0
0
0
1.04829e-269
1.41489e-201
0
0
1.64484e-270
0
0
0
7.41393e-102
0
0
0
2.09789e-274
1.50728e-117
0
3.35142e-308
0
1.43091e-45
0
4.13085e-181
0
0
0
0.0137805
2.74908e-149
1.28999e-35
0
0
6.75817e-244
3.20479e-289
5.57188e-307
8.40345e-230
2.62618e-33
0
3.1773e-133
1.93196e-96
4.46729e-33
0
0
0
0
0
0
1.03336e-33
0
2.57515e-64
0
1.98767e-293
1.57808e-191
0
0
0
2.10062e-56
7.66843e-58
0
4.30726e-98
6.02126e-18
0
0
0
24.8996
1.67522e-282
0
0
3.10811e-77
7.18768e-13
7.49498e-14
0
3.91478e-89
4.02918e-55
0
2.86118e-51
0
0
0
8.90893e-112
0
8.53759e-59
0
0
1.59318e-88
0
7.25987e-41
0
1.85363e-57
7.90756e-13
2.16497e-05
0
9.42183e-191
0
0
0.408703
2.64751e-242
1.3841e-36
5.41817e-124
0
0.00379331
0
0
1.07705e-34
0
2.92178e-31
0
0
0
0
0
0
0
0
0
2.01979e-42
0
0
0
7.69652e-115
0
1.02676e-156
5.65841e-89
3.1907e-40
0
7.53103e-124
1.7327e-163
0
4.67274e-118
0
0
1.36702e-98
1.30075e-72
1.47486e-45
0
0
1.89045e-60
0
0
0
0
1.30396e-110
0
1.67899e-115
37.0551
0
0
0
0
6453.28
1.31232e-58
0
0
0
0
63.9241
0
0
6.32153e-66
0
0
0
0
0
0
0
0
1.20361e-281
0
0
5.85103e-51
2.5719e-55
3.49716e-127
1.45736e-173
0
0
3.87734e-136
0
0
0
0
1.75231e-36
0
0
2.60126e-21
5.25421e-149
0
7.04899e-176
2.12972e-43
0
0
4.1216e-146
0
0
0
0
7.10216e-138
7.94576e-74
2.24835e-192
2.79796e-78
3.30981e-182
8.05748e-68
0
1.08236e-39
0
1.34342e-151
0
7.11979e-16
3.26959e-240
8.50978e-14
0
0
0
5.47768e-77
1.56315e-13
0
0
0
1.04301e-293
0
0
0
1.4748e-114
0
0
3.95811e-265
0
0
2.40666e-200
1.71226e-249
3.36022e-29
0
1.33851e-08
0
2.53184e-117
1.67073e-256
0
0
0
6.50173e-159
0
0
0
0
1.57463e-168
0
0
1.65269e-312
0
0
1.07833e-137
4.26149e-12
0
0
0
0
0
0
3.73995e-142
0
1.98455e-258
0
0
9.81704e-78
4.09494e-265
4.67032e-201
0
0
0
0
1.09425e-183
2.71398e-120
0
0
0
0
7.21186e-199
0
1.64448e-27
0
0
3.06698e-200
0
0
0
0
0
0
0
0
0
0
0
0
6.24736e-188
0
1.13733e-10
0
0
0
0
0
0
0
0
3.60093e-166
4.96628e-125
0
0
1.41992e-115
0
0
4.86201e-170
0
0
1.30892e-257
0
0
0
8.09834e-118
2.36944e-141
0
1.82179e-117
8.57379e-123
0
0
0
0
3.95954e-97
1.35124e-128
1.54236e-283
0
2.75751e-111
0
7.97909e-116
7.94606e-113
3.99675e-115
0
8.27877e-122
0
0
1.92961e-107
0
6.24198e-289
0
1.00383e-118
1.06089e-150
0
2.40174e-107
0
5.39288e-109
0
1.03282e-206
0
0
0
1.12996e-79
1.10377e-34
3.6671e-97
5.06426e-258
0
0
0
0
0
1.72384e-260
0
1.22815e-154
9.49626e-42
1.17224e-165
0
0
6.94219e-306
0
2.37009e-289
2.71516e-131
2.61437e-39
0
9.29763e-18
0
8.90032e-12
0
0
1.86172e-132
0
0
0
2.40912e-109
1.5556e-289
1.45288e-146
0
0
4.66367e-138
2.60678e-05
0
0
0
0
6.1205e-77
0
0
2.37654e-206
4.10728e-55
5.20054e-181
0
1.64123e-120
1.80434e-216
0
5.36348e-226
0
7.96745e-151
0
0
0
0
1.86608e-191
0
0
0
0
7.93939e-172
0
0
0
3.69581e-83
0
0
9.15487e-86
0
0
0
7.62521e-102
0
0
0
0
0
0
0
0
1.26573e-267
0
0
0
0
0
0
0
0
0
0
0
0
0
1.2785e-104
7.02187e-159
4.26474e-129
1.87588e-152
0
0
2.97598e-151
0
3.40209e-38
0
2.58529e-209
8.68106e-266
0
0
0
0
4.4295e-285
0
0
2.78268e-191
7.92923e-99
0
0
0
1.77828e-63
2.48633e-26
4.06983e-145
5.74209e-156
1.6492e-288
0
5.67095e-108
8.72917e-160
0
1.17007e-82
1.99745e-190
8.37123e-297
0
4.53922e-189
0
2.04046e-127
3.90174e-203
0
0
0
1.0766e-132
2.19996e-163
0
0
1.25724e-195
0
2.46687e-193
0
0
0
3.05284e-157
5.30959e-120
0
0
0
2.03954e-118
0
0
0
0
0
0
0
0
1.77534e-120
8.23405e-143
1.78405e-41
1.67698e-305
4.94559e-132
1.72283e-253
0
0
4.1349e-34
0
0
0
1.70048e-193
0
0
0
0
4.39701e-138
0
0
1.30001e-158
9.83761e-182
0
6.89263e-146
1.97671e-194
6.78237e-137
0
0
0
1.49177e-248
1.11499e-162
5.42058e-153
0
0
0
2.55169e-308
8.68153e-158
0
0
7.30772e-06
0
4.64287e-160
32324.6
0
6.33713e-25
4.19904e-162
0
0
1.352e-90
0
0
3.00105e-88
0
0
0
1.17766e-100
0
0
0
0
0
0
0
0
0
0
0
1.29972e-94
8.54697e-104
0
0
0
0
0
0
0
0
1.60687e-174
0
0
0
0
0
4.80278e-117
1.98475e-279
1.46849e-153
0
0
1.29076e-14
0
2.93269e-67
9.04989e-277
3.43211e-45
0
5.41925e-282
0
0
0
6.11233e-70
0
9.03839e-312
0
9.64684e-81
1.69904e-29
1.01758e-08
0
1.10222e-124
6.66143e-287
0
0
1.68478e-119
1.27121e-38
0
0
0
0
0
0
0
6.82049e-289
0
0
0
9.4155e-110
0
2.59061e-149
0
0
0
8.01377e-113
0
0
0
0
0
1.25439e-157
1.63845e-155
0
0
2.70171e-218
0
0
0
2.41499e-26
0
0
3.83668e-145
0
0
1.17019e-254
4.36869e-147
4.94238e-76
5.031e-29
1.2174e-215
1.49678e-209
0
2.79588e-147
4.27918e-92
1.40819e-148
0
0
3.02957e-285
4.31023e-157
7.52446e-74
0
0
3.25765e-79
0
7.17244e-25
4.16972e-60
0
0
0
2.67403e-77
1.30155e-81
0
4.12186e-129
4.08407e-143
0
1.28639e-146
4.7394e-97
1.36831e-89
6.11812e-23
0
0
0
0
0
5.52729e-30
0
1.33615e-151
0
0
2.69984e-258
1.01651e-277
0
0
4.01475e-104
0
3.11566e-109
7.35318e-206
2.63915e-76
0
4.34087e-66
8.99909e-82
0
0
0
0
0
0
0
3.18048e-268
7.4746e-258
0
0
5.47528e-18
0
0
2.26928e-17
0
131.022
0
0
6.75907e-32
0
0
0
0
0
0
0
2.80862e-304
0
0
7.50513e-150
0
0
1.09466e-278
7.92642e-121
0
0
0
0
0
0
0.00399678
2.10688e-169
4.66055e-63
7.24925e-181
0
0
5.43618e-129
0
7.55221e-94
0
0
4.80851e-82
6.00323e-311
0
4.40928e-172
8.27747e-18
0
1.17868e-173
0
4.19996
0
0
0
0
0
0
0
0
0
0
0
0
0
2.40344e-181
0
0
1.23563e-178
0
0
0
0
2.0848e-162
0
1.32132e-141
1.04896e-262
9.02016e-41
3.35762e-139
0
0
5.07121e-60
5.62497e-11
0
1.09972e-80
0
0
5.9405e-16
0
0
0
0
0
0
7.33166e-277
0
0
7.17171e-179
0
0
0
0
0
0
0
2.69594e-114
1.52978e-208
1.31177e-254
3.07467e-269
5.34115e-202
0
0
1.85394e-151
5.02727e-109
0
0
0
0
0
7.01429e-29
0
0
0
0
0
0
1.87402e-106
1.21087e-19
7.26076e-22
0
4.2563e-34
0
0
0
0
4.02053e-86
0
0
0
0
1.06541e-24
7.19996e-279
0
0
0
0
0
0
0
0
4.96922e-100
0
1.32534e-302
0
2.99204e-116
0
0
8.43418e-121
4.64104e-268
0
9.07431e-198
0
0
1.21638e-219
2.23801e-131
5.07165e-09
0
3.00422e-41
0
0.00169406
5.30797e-09
0
0
0
0
1.02785e-307
4.37257e-129
0
0
0
0
3.03051e-22
0
0
3.97017e-133
1.45428e-142
0
0
0
1.0712e-143
1.696e-286
0
0
3.74603e-155
1.20889e-109
0
0
0
4.44908e-280
1.56865e-36
3.25847e-13
0
0
0
0
0
4.51641e-264
0
0
1.66126e-08
0
0
0
9.69935e-149
2.96206e-84
0
0
0
0
0
1.01356e-255
3.72604e-163
0
0
0
0
0
2.11511e-246
0
1.10049e-74
0
0
0
0
1.27818e-171
0
0
0
1.71799e-172
8.8807e-177
0
1.82319e-211
0
0
9.30678e-209
0.00285692
2.77703e-208
3.66732e-98
0
0
0
8.48426e-222
0
0
0
0
1.44476e-205
0
0
9.89952e-176
1.00095e-156
3.84168e-305
0
0
2.91258e-225
0
0
0
0
0
0
0
1.56204e-95
6.18373e-201
0
7.07826e-286
2.13714e-177
0
3.50372e-118
4.82008e-217
0
0
0
775525
6.84503e-22
4.00856e-12
1.18135e+06
0
0
1.3678e-282
0
1.15158e-278
0
0
0
0
0
0
0
3.35137e-208
0
0
0
5.2124e-240
0
3.64225e-115
0
0
7.92562e-124
1.47799e-117
0
0
0
0
1.34294e-229
0
8.80328e-155
7.19484e-293
4.82909e-121
0
0
0
0
7.53937e-273
0
7.66326e-106
0
0
7.76662e-105
0
0
1.77383e-103
6.17226e-313
3.83386e-99
0
0
0
0
7.64942e-160
0
0
0
0
8.24821e-235
0
4.90277e-121
0
2.85322e-28
1.7098e-52
0
0
0
8.88929e-158
4.9461e-181
0
0
0
5.21854e-24
3.03744e-299
5.101e-289
3.82378e-35
0
0
0
3.0301e-304
0
0
0
1.8554e-76
1.35508e-273
4.19085e-299
0
0
0
1.83314e-305
0
0
0
5.24406e-303
0
0
0
0
0
0
2.34115e-276
0
0
0
4.04774e-308
0
8.57513e-16
5.00865e-11
0
0
0
0
5.72347e-29
0
0
2.07116e-137
0
0
1.90586e-141
0
0
0
0
0
1.44492e-85
0
0
0
7.62571e-94
0
4.65441e-143
1.87274e-142
0
0
1.69383e-301
9.78543e-140
4.59686e-139
1.03639e-129
0
0
0
1.57804e-296
7.18208e-178
0
6.96024e-258
7.48134e-137
2.43498e-122
0
6.54429e-138
3.50503e-53
0
0
5.35878e-237
6.09158e-273
1.83948e-226
0
0
0
0
0
3.54871e-286
0
0
0
0
2.92473e-300
0
1.10233e-269
2.12675e-91
0
0
0
0
0
0
0
0
0
0
0
0
0
0
0
0
1.19207e-307
5.46583e-255
0
0
0
2.97025e-151
0
2.2317e-34
0
0
0
1.06885e-287
1.78716e-313
0
0
0
3.03537e-274
2.23811e-215
2.3527e-151
0
5.69932e-166
7.47718e-184
0
0
0
2.94985e-174
0
0
0
2.53587e-255
0
0
0
0
0
0
0
0
0
0
7.16119e-175
0
0
0
0
0
0
1.47183e-156
7.06156e-157
0
0
1.74622e-248
1.05028e-213
0
1.10193e-302
0
5.54271e-75
1.227e-99
0
0
5.07074e-212
0
3.56385e-228
1.51133e-194
0
0
2.76105e-288
0
0
0
0
7.98971e-136
0
0
2.13797e-287
0
3.75247e-276
0
0
0
0
3.60538e-99
0
0
1.01939e-216
0
0
1.39884e-74
5.67449e-49
0
0
0
9.13938e-203
0
0
0
1.70677e-232
1.57268e-298
0
0
0
3.60884e-127
0
0
0
0
0
0
0
6.53845e-154
0
0
0
0
1.64521e-237
0
0
0
0
7.96032e-246
0
0
6.44442e-34
4.21333e-196
0
2.4472e-209
1.10454e-199
0
0
0
6.17114e-194
0
3.46855e-43
0
0
0
0
0
1.40301e-227
0
0
0
0
0
0
1.38909e-108
0
0
0
7.35675e-26
0
0
7.18519e-68
2.93125e-128
1.13195e-128
1.00712e-247
0
0
0
0
1.34477e-69
0
4.45467e-131
0
0
0
0
0
4.14533e-25
0
0
0
0
0
0
0
0
0
0
0
0
4.54367e-191
0
0
0
2.85532e-235
0
0
0
0
0
0
0
0
0
9.39895e-104
9.59111e-244
0
0
0
0
0
5.33475e-297
0
0
0
0
0
0
0
1.56382e-102
0
4.86797e-131
0
0
0
3.12776e-119
0
0
5.90078e-35
1.42288
0
0
0
0
9.11661e-300
0.00936763
0
0
0
0
0
0
0
0
4.80107e-58
0
0
0
0
0
0
0
4.72881e-206
3.37921e-275
1.26738e-07
0
1.35264e-282
0
1.22143e-311
9.29532e-125
0
1.15497e-124
2.76251e-18
0
0
0
8.6361e-282
0
0
0
3.13578e-248
3.72123e-120
0
0
0
0
2.55861e-146
4.97722e-130
0
4.85768e-233
0
4.2537e-122
0
0
0
8.45567e-161
3.10822e-171
4.00321e-11
0
6.10395e-23
0
5.21919e-19
4.87336e-128
0
0
0
0
1.1547e-217
3.73696e-122
5.83301e-120
0
0
0
2.19846e-155
0
0
0
0
0
0
4.223e-194
0
2.84641e-44
0
6.67826e-40
0
0
0
0
0
0
6.17256e-273
0
0
0
0
0
3.53004e-206
0
0
0
0
1.50507e-36
9.33452e-172
0
0
0
3.54164e-218
4.2175e-283
0
0
0
0
0
0
0
0
0
0
3.69579e-57
2.04662e-300
0
0
0
0
4.0321e-292
0
0
0
5.43599e-306
4.10707e-58
0
0
0
0
0
0
0
0
1.38699e-254
2.49368e-291
0
0
0
6.43137e-286
0
0
0
4.42963e-222
1.33795e-227
0
9.38622e-138
5.89683e-244
0
1.63585e-297
3.8464e-141
0
0
1.22028e-114
0
4.5425e-214
1.44587e-108
0
2.5537e-135
0
0
1.87018e-241
0
0
0
7.00629e-133
0
0
0
0
0
0
0
0
0
0
0
1.83166e-118
1.77517e-263
0
0
0
0
0
3.17014e-252
7.87717e-172
0
1.44059e-266
0
0
0
0
0
3.00246e-283
2.11617e-286
4.32581e-204
0
9.69943e-297
0
0
0
0
0
1.93928e-100
0
0
0
0
8.32476e-309
0
3.16601e-274
0
0
0
1.69293e-153
7.12715e-182
1.90417e-296
0
0
0
1.23152e-202
2.49595e-188
0
0
0
0
0
0
0
0
0
0
0
7.93267e-140
2.96279e-144
9.88552e-210
0
0
0
0
0
8.17135e-101
0
2.41842e-196
1.18619e-227
0
0
0
0
0
0
0
0
3.48334e-149
0
0
8.4718e-216
9.16244e-265
0
0
0
2.68463e-141
3.48719e-262
2.2372e-175
0
0
2.81887e-99
0
0
1.27123e-39
0
0
3.44204e-264
0
0
0
0
0
0
0
0
0
0
8.2465e-111
0
0
0
0
0
1.00258e-63
0
0
3.84478e-111
0
0
0
1.09532e-102
1.48989e-182
5.0815e-166
0
0
0
0
3.51186e-180
0
0
0
0
0
0
0
0
0
0
6.15309e-279
0
0
0
0
0
0
0
0
0
4.78501e-118
0
0
2.72308e-164
0
0
0
0
0
0
0
0
1.46866e-181
3.46973e-169
0
0
0
0
0
4.83946e-151
1.17106e-166
0
1.36791e-67
0
0
0
0
0
0
7.67115e-33
0
0
8.59323e-292
0
0
4.15404e-102
0
0
0
2.11847e-63
6.0146e-64
0
0
9.72879e-21
5.70536e-239
3.37183e-209
3.77738e-151
0
0
0
2.73346e-136
4.33096e-89
0
0
1.91668e-60
1.6261e-86
5.90736e-178
2.43557e-153
0
0
0
8.04927e-63
0
0
0
3.87579e-81
5.90937e-221
0
0
3.15965e-171
1.35119e-72
1.29785e-209
3.80905e-243
0
4.67804e-66
0
0
0
8.12878e-112
3.59322e-85
4.60483e-60
0
0
0
0
6.42894e-17
7.34446e-159
0
4.15392e-136
3.36767e-16
1.94097e-14
2.48078e-286
0
0
0
4.14523e-255
0
0
0
0
0
3.45111e-264
0
0
2.27932e-300
0
1.63155e-62
1.25569e-59
1.12356e-296
0
5.90119e-294
0
5.30858e-169
0
0
0
0
0
5.70502e-139
2.38623e-137
0
3.16266e-184
0
0
0
5.1957e-119
0
0
2.00861e-149
0
0
0
0
0
0
0
0
0
4.96198e-12
0
0
0
0
1.93548e-245
0
0
0
0
0
0
0
0
1.88509e-181
0
4.66399e-263
1.80092e-276
0
0
0
6.79558e-274
1.98535e-193
0
0
3.40281e-09
1.6408e-271
0
0
0
2.01814e-260
0.0499438
0.000445722
0
0
0
8.42524e-199
8.91954e-204
0
0
0
4.32007e-179
0
1.87968e-115
0
0
7.67665e-209
1.69448e-144
1.25856e-196
0
0
0
0
0
0
0
0
0
0
9.38834e-229
0
0
0
8.16952e-151
0
0
5.1198e-249
0
6.19213e-140
5.98514e-255
0
0
0
5.49556e-247
2.59405e-166
0
7.66097e-187
0
7.64184e-272
0
0
0
0
1.40879e-222
0
0
0
7.24207e-258
7.68276e-291
3.55902e-242
0
0
0
0
0
0
0
0
0
0
3.37431e-40
3.0648e-222
0
0
6.82642e-246
0
1.46753e-87
0
0
0
0
6.2741e-175
2.65296e-38
0
1.77503e-153
8.14385e-34
0
8.82448e-260
0
9.40004e-155
1.42768e-144
0
2.47976e-266
0
1.50044e-285
1.47985e-36
1.74409e-143
8.32178e-151
1.3058e-205
1.94215e-78
1.1493e-158
0
1.62622e-33
0
1.50168e-156
7.27079e-273
1.02803e-31
8.40014e-258
1.49694e-284
0
0
0
0
0
9.4611e-112
5.7055e-257
4.94408e-58
0
0
0
0
0
0
9.09436e-110
1.28646e-83
0
0
0
0
1.20837e-217
0
0
0
0
4.53168e-43
0
0
0
0
0
0
0
1.41372e-116
0
0
0
3.16621e-255
0
0
0
0
0
0
0
0
0
3.71309e-305
0
0
0
0
0
0
2.70929e-302
0
0
0
6.57739e-109
2.32176e-120
0
0
1.59227e-227
0
0
0
0
0
0
0
0
0
1.35758e-291
1.17525e-242
0
0
0
0
0
0
1.03314e-250
3.62565e-289
0
0
0
5.2317e-127
0
6.50317e-293
1.92145e-215
0
1.32397e-121
0
0
0
0
0
0
0
1.84737e-299
0
0
0
0
0
0
0
0
0
0
0
0
6.8112e-276
0
4.93787e-111
0
0
0
0
0
1.84001e-166
3.28199e-175
0
0
0
0
0
0
0
0
0
5.67418e-101
0
0
0
0
0
2.51303e-44
0
4.64234e-218
1.96224e-163
0
0
0
0
6.23874e-303
0
0
0
0
0
0
0
0
0
0
0
0
7.96248e-177
0
0
0
0
0
0
0
0
1.48167e-289
0
1.85575e-228
9.03242e-225
0
0
0
0
2.17816e-290
8.27397e-217
0
6.07064e-232
0
8.84173e-159
0
0
9.26013e-144
0
0
6.13448e-285
0
0
0
0
8.32869e-128
0
0
0
0
0
1.32676e-118
4.50271e-198
0
3.29524e-230
4.11137e-66
0
3.87713e-77
1.78313e-281
8.65085e-108
0
4.93789e-255
0
0
0
0
0
9.95958e-216
0
0
7.02356e-34
0
0
1.19221e-223
0
2.37988e-307
0
0
0
0
0
0
2.31996e-138
0
0
3.26896e-195
1.17993e-31
0
0
0
8.68235e-214
1.68269e-192
0
0
0
0
8.17176e-190
0
0
0
8.10245e-214
0
3.14577e-245
0
0
0
0
0
4.90858e-50
1.70576e-189
0
0
4.48452e-51
4.91532e-110
0
3.37373e-252
3.57507e-51
0
0
0
6.77477e-196
0
0
0
0
0
0
0
3.7026e-54
0
2.01194e-261
0
4.38223e-163
0
4.26702e-193
0
0
1.25987e-119
0
0
0
0
0
0
0
0
0
1.21587e-279
0
0
0
0
0
0
0
3.91367e-300
0
0
0
0
0
0
1.86712e-100
1.8239e-87
0
0
0
0
0
0
1.18973e-264
0
0
6.11096e-195
0
0
1.10795e-183
1.72781e-309
0
4.94627e-107
0
0
0
0
0
0
0
1.21509e-245
0
0
1.44673e-266
0
4.79725e-283
0
0
0
0
0
0
0
7.56416e-126
0
5.62808e-182
0
0
4.15131e-181
1.96216e-305
4.28912e-203
0
0
0
0
0
0
0
0
0
0
0
0
0
0
0
0
0
0
0
1.49952e-47
0
0
2.67512e-301
0
0
0
8.33358e-288
6.0284e-312
0
0
3.44656e-71
0
0
4.33042e-49
0
0
0
0
0
0
3.03788e-68
0
0
0
0
0
2.65849e-268
0
3.34738e-46
0
0
0
8.32039e-137
0
0
0
3.57897e-36
0
0
0
2.0145e-53
1.79538e-206
0
0
0
0
0
1.49127e-62
0
3.23042e-27
0.0132726
0
2.47424e-175
0
0
0
5.78623e-68
0
6.2543e-69
8.78221e-149
0
1.7844e-214
0
0
0
0
0
0
0
1.34865e-48
0
9.73829e-131
0
0
0
0
0
0
1.20534e-265
0
1.36831e-50
0
9.44854e-150
0
4.38839e-142
0
0
0
8.38367e-45
0
0
0
0
9.82181e-42
9.01444e-96
2.44571e-79
0
0
4.64059e-135
0
9.61535e-133
2.57784e-129
0
2.00925e-136
0
0
3.00376e-191
2.9844e-276
0
1.45314e-67
0
0
0
0
0
0
1.67038e-102
2.34749e-47
0
0
0
0
0
0
4.04952e-45
7.57596e-77
0
0
0
1.70988e-291
0
0
8.87574e-305
0
0
0
7.81882e-95
0
6.8633e-95
0
0
0
0
0
4.73974e-286
3.50161e-291
0
0
0
0
0
0
0
0
0
0
0
0
0
0
8.39163e-221
1.98833e-247
3.65808e-231
0
0
0
0
0
0
0
0
0
0
0
0
0
0
6.83746e-239
0
9.35687e-311
0
0
5.09181e-312
0
0
0
0
0
0
3.10393e-312
1.11358e-304
0
1.57686e-310
2.07881e-36
0
0
4.18132e-135
0
0
0
8.81069e-30
1.42228e-32
1.45576e-170
7.72272e-263
5.06845e-32
4.05318e-261
0
0
0
0
3.02613e-305
0
0
0
0
0
0
3.2851e-299
0
0
0
0
0
0
0
2.09305e-45
0
0
0
0
0
2.86403e-252
0
0
0
0
0
0
0
0
0
0
7.77596e-258
2.95015e-302
0
3.19835e-82
0
8.61477e-165
1.63976e-147
0
0
5.73435e-225
0
4.53266e-214
0
0
0
0
0
0
0
0
0
0
0
0
2.19046e-222
0
0
0
0
1.94469e-24
0
0
0
6.83871e-307
0
0
1.08001e-211
0
0
0
1.70057e-23
1.18375e-257
0
0
1.24702e-18
0
0
0
1.09635e-282
0
0
0
7.62064e-306
2.16251e-309
0
0
0
0
5.24839e-284
0
0
0
0
0
0
5.05112e-85
0
8.8499e-292
0
0
0
0
0
0
1.61416e-224
0
0
0
1.31314e-296
5.63883e-297
0
0
2.45847e-265
2.92112e-302
6.9596e-40
0
0
0
0
1.29077e-112
1.04564e-272
0
6.27162e-295
0
0
0
2.57306e-296
5.65333e-112
0
7.80686e-283
0
0
5.01041e-301
0
0
0
0
0
0
0
0
2.16547e-111
0
0
0
0
7.36854e-94
2.93442e-133
3.01e-91
0
0.0205439
2.89985e-258
0
0
0
0
0
0
0
0
0
0
0
2.62516e-100
0
0
0
0
0
0
0
0
0
0
0
0
0
8.61618e-142
0
2.6717e-107
0
6.90573e-195
0
0
0
0
0
1.85813e-56
0
0
2.12349e-144
0
0
0
0
2.56858e-252
6.80163e-271
0
0
0
1.27693e-302
1.42224e-199
0
0
1.07739e-188
0
0
0
2.23919e-206
1.60345e-226
0
0
2.11173e-37
0
0
0
9.29506e-286
0
4.31349e-193
0
8.5379e-276
0
1.97801e-197
0
0
0
0
0
0
0
0
0
0
3.44263e-250
0
2.61574e-244
3.23118e-245
0
0
0
0
0
1.37589e-255
2.32056e-111
0
5.17682e-112
0
2.32086e-280
0
7.22736e-185
0
0
0
0
5.93276e-186
0
0
0
4.78253e-217
0
0
0
0
1.17429e-233
0
0
3.16701e-242
3.79152e-186
0
0
0
0
6.71281e-230
0
2.91318e-187
1.04191e-247
7.80944e-254
0
0
0
3.54705e-249
0
0
0
0
0
0
0
0
0
0
5.57242e-116
0
8.23542e-192
0
0
0
0
0
3.75579e-237
0
2.97114e-114
0
0
0
6.01235e-117
0
0
0
0
0
0
1.63267e-312
0
0
0
0
0
0
0
0
0
0
0
0
0
1.82711e-116
0
0
3.65652e-177
0
0
1.31959e-245
0
0
0
0
0
6.77779e-207
0
0
0
0
0
8.25713e-211
0
0
0
0
0
0
0
0
0
1.75523e-270
0
0
0
0
0
0
0
1.039e-306
0
0
2.58387e-296
0
0
0
0
0
0
0
0
0
0
0
0
1.35341e-194
1.46008e-273
0
1.97259e-262
1.1436e-249
0
0
0
0
0
0
0
0
0
0
1.88167e-12
0
0
1.17215e-206
1.89401e-293
0
0
0
0
0
1.48073e-282
0
0
0
2.46164e-180
1.65065e-210
1.06505e-180
0
0
0
0
0
0
0
0
0
0
0
0
0
4.86331e-215
0
0
1.0222e-212
1.12641e-190
3.11016e-218
0
0
0
9.37492e-189
0
2.23003e-203
3.32352e-251
0
0
0
0
0
0
0
0
0
0
0
0
0
0
0
0
0
0
0
0
0
0
0
0
4.41535e-248
0
0
3.60938e-237
0
0
3.53774e-263
0
0
0
0
7.56372e-297
0
7.48875e-88
2.12748e-38
0
1.71475e-194
0
0
6.39284e-190
0
3.53675e-104
0
3.17598e-93
1.24223e-85
0
0
2.17365e-79
0
0
0
0
0
0
0
2.26382e-78
0
0
0
0
0
0
0
0
8.74952e-224
1.57014e-244
0
8.97971e-24
0
0
0
0
0
0
0
0
0
0
0
0
0
0
0
1.95995e-179
0
6.48654e-176
1.13881e-178
0
0
0
0
0
0.0750567
0
0
0
0
8.63921e-112
0
0
0
0
0
0
0
0
1.18045e-110
0
0
0
0
0
1.30156e-215
0
5.40594e-213
0
0
6.72921e-212
1.30221e-209
0
0
0
0
0
0
0
0
5.30933e-210
0
3.83986e-207
0
6.95141e-98
0
3.55169e-223
6.8839e-222
6.04815e-236
0
0
9.17959e-22
0
0
0
0
0
0
2.77228e-10
4.25082e-233
0
0
0
0
0
0
0
0
8.76283e-172
0
0
0
0
0
0
0
0
0
0
0
0
0
1.41149e-256
0
0
0
0
0
0
0
0
0
3.56573e-288
4.03841e-118
9.41604e-153
0
0
0
0
0
1.53905e-150
0
0
0
0
1.37902e-198
0
0
0
0
0
0
0
0
0
0
1.86516e-192
0
0
0
0
0
0
0
0
5.16942e-249
0
0
4.11427e-78
0
0
0
0
0
0
0
0
0
0
0
0
0
4.84652e-179
0
0
0
3.65773e-76
0
0
0
0
0
0
0
2.72641e-104
0
6.1254e-310
0
0
0
0
0
0
0
0
1.27621e-286
0
0
0
0
0
0
0
0
0
0
9.93426e-238
0
0
7.74012e-211
2.94756e-71
0
0
0
0
0
7.07265e-300
0
0
0
0
4.30885e-305
1.09479e-312
0
9.38511e-310
1.40736e-261
0
0
0
0
0
0
4.671e-307
0
0
0
0
8.539e-106
0
0
0
0
0
0
0
0
0
0
0
0
0
0
0
0
0
0
0
0
0
0
2.29126e-244
2.09561e-237
0
0
1.64964e-181
0
0
0
0
0
0
0
0
2.2451e-240
0
0
0
0
0
0
0
0
0
0
0
0
0
0
0
0
0
0
0
3.38217e-102
0
0
0
0
7.14598e-297
0
0
0
0
2.14302e-308
5.80416e-180
0
0
0
0
2.15178e-177
0
0
1.29362e-210
0
0
9.59508e-216
1.53749e-213
0
0
0
0
0
0
0
0
0
0
7.86744e-121
2.44815e-230
0
0
0
3.90176e-239
0
2.25947e-178
8.76053e-124
0
0
0
0
1.51007e-296
0
0
0
5.0747e-242
4.52913e-300
0
4.21486e-176
0
0
0
0
0
0
0
0
0
0
3.34966e-302
0
2.86176e-126
4.39128e-205
0
0
3.8131e-293
4.53133e-179
0
0
0
3.48024e-233
8.14054e-235
4.85549e-187
0
3.70237e-312
3.65703e-202
0
0
0
0
8.02448e-66
0
0
3.1799e-54
2.04389e-27
0
0
0
0
0
6.18423e-185
0
0
0
0
3.80086e-178
8.88487e-50
0
1.74228e-285
105.842
0
0
2.97975e-103
0
0
0
0
0
7.31744e-108
0
0
1.51343e-151
0
0
0
4.9426e-142
0
0
0
0
0
8.85288e-153
6.06129e-153
1.53542e-181
0
0
0
0
0
0
2.21298e-129
0
4.04421e-123
1.32778e-120
8.26701e-169
0
9.43468e-307
0
1.8195e-163
0
0
0
0
0
0
0
4.49694e-161
1.08116e-118
3.86439e-164
0
0
0
0
0
0
0
0
0
0
0
0
0
4.91738e-49
1.76642e-65
0
0
7.04853e-87
4.6894e-240
3040.56
0
0
0
7.69638e-39
5.45483e-77
2.11218e-20
1.09008e-36
0
0
4.50037e-243
0
0
0
0
0
0
0
7.31748e-14
0
0
0
0
0
0
0
2.83339e-148
0
5.72824e-122
5.08266e-96
0
0
0
4.7899e-241
0
0
0
9.45585e-125
0
0
2.20582e-238
0
2.14484e-152
0
0
1.04457e-125
1.07031e-157
5.50791e-117
0
0
1.56946e-117
0
7.11427e-109
2.38004e-98
1.85271e-99
0
0
0
0
1.27265e-99
0
2.82327e-143
5.74933e-163
0
1.07479e-188
0
5.93293e-154
0
0
0
1.06993e-153
0
0
0
0
3.01931e-211
3.09885e-258
0
0
0
4.17328e-56
0
2.62288e-154
0
8.94842e-53
0
0
1.59973e-239
0
0
1.58456e-43
1.96074e-43
9.88151e-15
0
0
1.73869e-197
2.08797e-150
4.60654e-241
3.44221e-209
0
0
0
1.58801e-49
0
4.88486e-174
1.05727e-173
6.42833e-154
0
0
6.16989e-162
0
1.05715e-87
0
1.54392e-153
0
1.29151e-246
0
0
0
0
0
0
7.71985e-63
0
5.2888e-44
0
0
0
3.06367e-93
7.71361e-44
0
0
3.64932e-104
1.91754e-282
0
0
2.76568e-75
0
0
5.27762e-147
0
0
3.52748e-76
8.45463e-122
0
0
0
0
0
0
0
0
0
9.97867e-150
0
0
0
1.7243e-117
0
0
0
1.96517e-16
2.17908e-130
0
0
0
0
3.51215e-88
0
0
1.35111e-11
3.14179e-182
4.20803e-187
0
0
0
2.37754e-30
2.18967e-84
0
0
0
0
0
0
1.34268e-115
2.36468e-74
0
3.743e-311
0
1.43647e-70
0
0
0
3.41931e-36
0
0
0
0
0
0
0
0
0
1.92351e-59
0
0
0
8.6777e-88
0
0
0
0
0
1.29779e-24
0
4.64511e-39
8.16359e-121
1.52746e-59
0
0
7.94418e-109
0
0
2.6713e-123
3.63029e-39
0
0
4.7398e-114
2.30585e-306
2.1558e-114
4.29346e-146
0
0
0
0
0
0
1.08268e-188
4.0397e-73
9.28016e-244
0
6.631e-118
0
0
0
1.46839e-171
0
4.47161e-96
3.09014e-67
3.45381e-33
0
0
1.66901e-157
0
4.37868e-155
1.3411e-81
0
1.45229e-46
0
0
0
0
0
0
0
0
0
0
0
6.84402e-97
0
0
1.04012e-33
0
0
0
5.21326e-228
0
3.33801e-118
6.09228e-116
8.76767e-240
2.01261e-236
0
2.45033e-133
3.61421e-175
3.48013e-279
0
0
1.07716e-244
0
0
8.80699e-266
1.38345e-84
0
0
0
1.13327e-233
2.25149e-34
0
6.95905e-44
0
0.250751
6.48518e-261
2.00082e-88
0
8.62552e-32
0
3.6938e-41
1.49537e-49
1.50638e-42
0
0
2.27519e-255
0
0
0
0
0
0
5.81346e-265
0
0
0
5.7504e-130
1.99851e-218
0
0
0
0
4.56434e-113
0
0
1.71201e-115
2.11531e-280
0
6.66126e-58
0
0
1.252e-101
0
0
0
0
0
2.69164e-100
4.63737e-82
0
0
1.01132e-221
4.1153e-28
0
2.22281e-94
8.85687e-179
0
0
0
0
0
1.22909e-62
7.88356e-91
3.26344e-08
4.00705e-116
0
8.6165e-20
4.48214e-53
0
1.05075e-17
0
1.97765e-108
0
0
1.76492e-60
5.49114e-57
0
0
0
0
0
0
0
3.33543e-67
0
3.39257e-128
0
9.26704e-176
9.20821e-58
3.06422e-123
7.09654e-97
2.13622e-88
6.63423e-107
1.29214e-165
0
1.63503e-82
0
0
2.87315e-79
2.5114e-99
0
0
2.0776e-26
3.91308e-63
0
3.10085e-288
1.56748e-184
3.68447e-41
0
0
0
0
0
8.6775e-43
0
0
0
1.45865e-92
0
0
4.59975e-171
0
0
1.79331e-101
0
0
0
0
1.73252e-92
3.24969e-63
0
4.08017e-144
0
1.94254e-78
0
0
1.30019e-260
0
0
0
5.65361e-69
1.05681e-118
0
3.11435e-124
1.85492e-121
0
0
0
0
1.85926e-80
0
0
0
0
0
0
1.2643e-242
8.1869e-122
5.31899e-74
0
5.82649e-76
0
0
4.20703e-72
0
5.24745e-51
0
0
0
0
0
2.54179e-21
1.57878e-25
0
0
0
3.47455e-52
0
0
7.28725e-302
1.77742e-117
0
5.71605e-288
9.19711e-32
0
3.1697e-296
0
0
0
2.41835e-285
0
0
0
2.37931e-117
5.11807e-49
0
3.59292e-124
0
2.9817e-15
0
0
0
0
4.1184e-35
0
4.6173e-83
0
0
0
1.42691e-46
0
0
2.06004e-34
9.78815e-08
0
4.19293e-99
2.12361e-26
1.995e-23
0
2.41255e-104
0
5.95054e-18
0
0
0
1.15007e-298
4.11019e-108
5.19834e-313
0
0
3.07468e-196
1.951e-97
0
7.46738e-17
3.97807e-302
4.77031e-255
0
0
0
0
0
0
6.84683e-282
0
0
2.25478e-84
0
0
1.29062e-227
3.68527e-230
1.27315e-10
3.23945e-30
0
1.13193e-236
0
360289
4.29911e-263
0
0
0
1.01138e-120
0
0
5.09386e-72
0
2.67535e-76
0
3.91267e-74
0
0
2.20157e-270
0
6.06121e-16
0
0
0
7.58815e-26
0
0
2.31066e-24
0
0
1.40847e-60
0
0
0
0
4.96952e-131
0
0
3.62661e-207
0
3.32782e-79
0
6.20723e-75
0
2.30419e-160
2.21922e-162
0
0
6.85114e-40
5.35095e-37
0
1.4779e-92
3.42597e-208
3.5009e-207
1.47057e-121
1.18858e-209
0
3.32139e-106
3.73007e-218
0
0
0
0
0
0
9.82818e-112
0
0
2.25712e-26
0
0
0
0
2.34735e-77
3.3513e-163
0
0
7.57648e-38
1.8465e-47
0
1.39809e+06
3.08682e-12
0
7.90019e-31
0
0
2.28444e-283
0
7.22446e-303
1.37525e-293
8.9734e-15
0
9.61616e-07
0
0
0
0
0
8.55646e-270
2.25352e-267
0
0
0
7.7411e-268
0
0
0
3.78666e-265
1.24852e-92
0
1.2246e-53
0
3.38097e-27
3.2432e-25
0
0
4.90185e-22
7.78035e-22
0
0
0
4.57155e-17
5.89097e-18
0
2.42968e-60
1.24327e-84
2.35049e-70
9.91138e-38
0
7.70079e-26
1.68939e-24
0
1.37806e-24
3.30382e-05
3.16754e-29
0
5.94917e-228
0
0
1.40253e-147
0
2.69002e-147
4.67509e-40
2.40973e-19
4.65403e-31
0
1.73627e-258
0
0
1.43205e-144
0
0
0
4.48511e-274
2.14197e-17
0
4.67698e-70
1.6746e-39
0
1.74272e-55
1.82251e-291
0
0
1.83984e-286
8.61197e-291
1.13361e-76
21.3568
1.39452
0
0
0
0
0
0
0
1.17437e-46
0
1.50677e-271
0
2.41179e-252
0
2.44833e-22
7.84971e-107
0
0
6.24383e-14
0
0
4.32989e-68
0
0
0
2.42988e-42
5.11543e-19
2.05521e-07
0
6.34035e-188
1.72367e-187
0
0
2.57496e-07
2.01836e-23
3.59041e-09
0
0
0
0
6.88889e-60
3.30084e-47
0
0
0
0
0
2.53364e-109
0
3.4037e-84
0
1.51714e-38
0
1.70045e-28
0
0
9.90123e-248
1.47886e-116
1.28253e-09
0
3.86794e-11
1.81803e-223
0
2.09867e-189
2.53136e-21
5.14831e-221
0
1.97417e-11
0
0
1.34825e-13
0
5.09291e-16
0
0
0
1.773e-148
1.4859e-14
0
0
2.32677e-13
0
1.01352e-217
1.18764e-92
0
0
0
3.11598e-175
0
1.98464e-197
7.56272e-247
0
2.04947e-175
3.22563e-218
0
1.66024e-121
1.05289e-124
1.73863e-213
4.96666e-216
0
0
0
2.13616e-261
9.0985e-71
0
0
1.2908e-213
0
1.40894e-147
5.42294e-102
0
2.37632e-124
0
1.54796e-111
2.40533e-126
4.37216e-119
9.14968e-233
0
0
0
1.21126e-67
3.06148e-175
0
7.10121e-81
2.56276e-177
0
7.49994e-209
1.2633e-269
0
0
1.09213e-119
1.39486e-207
1.6401e-299
3.05935e-32
0
0
0
0
0
0
0
0
0
1.0909e-146
0
0
4.80147e-75
6.04326e-71
0
0
8.52029e-172
5.56446e-298
0
0
0
1.73427e-162
0
0
0
9.47435e-243
5.25857e-63
2.06486e-300
0
0
0
0
0
4.9203e-233
0
0
2.4222e-210
3.5481e-182
0
8.20818e-177
3.28624e-132
1.95026e-137
0
0
9.8339e-183
3.31768e-235
0
0
2.8298e-206
7.45475e-173
0
0
0
0
1.27265e-234
0
0
9.44888e-44
5.29775e-118
0
7.8597e-163
4.86619e-23
9.79447e-305
6.59485e-142
0
0
0
1.71443e-257
0
6.99641e-194
0
1.68165e-272
3.52585e-139
4.8659e-277
3.34606e-140
0
0
1.27344e-121
1.13311e-113
1.1948e-219
1.35138e-144
0
0
0
0
4.92773e-275
0
1.23406e-99
0
2.32512e-142
0
0
0
1.4333e-51
0
0
3.07688e-212
0
4.72138e-104
0
0
0
0
0
0
0
6.19993e-288
0
0
1.98935e-19
0
0
0
0
4.44779e-243
3.19363e-210
0
2.16812e-213
1.73116e-204
1.14743e-122
0
0
0
6.90209e-89
4.49868e-275
0
0
3.49642e-301
0
0
0
0
0
0
1.73999e-90
0
0
0
0
1.27091e-16
0
0
1.22231e-45
0
0
0
9.13614e-176
0
0
1.031e-218
2.08637e-188
0
0
0
0
0
0
1.59127e-117
0
3.99807e-195
8.32471e-108
0
0
0
4.06546e-267
1.28176e-264
0
0
0
0
0
0
0
0
0
5.36284e-113
3.96014e-80
0
0
0
0
5.62592e-05
0
0
3.67422e-24
4.60373e-249
0
7.70997e-15
1.15135e-38
1.33481e-22
7.70224e-220
0
0
0
2.51142e-30
1.34592e-25
2.44998e-23
0
7.84158e-251
0
0
0
1.10627e-227
0
4.07895e-79
0
5.75916e-45
6.41096e-47
0
0
0
7.54896e-166
0
0
0
1.19204e-18
2.62449e-45
0
4.84983e-48
2.66948e-195
1.41271e-66
0
1.36607e-17
0
0
0
1.08752e-223
0
0
0
0
0
1.6705e-147
6.09616e-205
0
0
0
0
0
0
0
0
4.64506e-73
0
7.17455e-204
4.50126e-213
7.92589e-222
0
3.60773e-219
0
0
0
0
0
0
0
0
4.13725e-38
0
5.53717e-60
0
0
0
0
0
0
0
0
0
2.39182e-20
0
0
0
0
0
6.92271e-22
1.12011e-32
0
0
0
0
5.11933e-77
0
0
0
0
0
0
6.45502e-84
0
0
0
0
3.765
0
0
0
0
0
0
6.97605e-253
0
0
4.73166e-20
0.215254
0
0
1.14728e-177
1.09076e-216
1.36288e-177
0
1.76085e-52
0
1.62067e-175
0
0
0
0
1.2975e-06
2.55728e-267
5.31345e-95
0
5.28196e-261
0
4.92455e-140
0
2.1077e-176
0
7.71431e-232
1.08223e-87
1.29715e-304
0
0
0
0
0
0
3.29726e-305