/*--------------------------------*- C++ -*----------------------------------*\
| =========                 |                                                 |
| \\      /  F ield         | OpenFOAM: The Open Source CFD Toolbox           |
|  \\    /   O peration     | Version:  v2012                                 |
|   \\  /    A nd           | Website:  www.openfoam.com                      |
|    \\/     M anipulation  |                                                 |
\*---------------------------------------------------------------------------*/
FoamFile
{
    version     2.0;
    format      ascii;
    class       volScalarField;
    location    "1";
    object      qr;
}
// * * * * * * * * * * * * * * * * * * * * * * * * * * * * * * * * * * * * * //

dimensions      [1 0 -3 0 0 0 0];


internalField   uniform 0;

boundaryField
{
    fire_inlet
    {
        type            calculated;
        value           nonuniform List<scalar> 
34
(
0.0639376
0.0516982
0.0543813
0.0604759
0.0777998
0.0370183
0.05218
0.0499505
0.0554079
0.0542115
0.0772449
0.0733102
0.0500232
0.100909
0.0746883
0.109302
0.0603529
0.0832246
0.0573031
0.0723305
0.0869147
0.0621072
0.0476456
0.105601
0.0806572
0.142093
0.0652519
0.0645851
0.137376
0.0774919
0.0700585
0.0555446
0.079427
0.0781294
)
;
    }
    outlet
    {
        type            calculated;
        value           nonuniform List<scalar> 
400
(
-5.30475e-06
-4.39021e-06
-4.61852e-06
-6.49463e-06
-6.05315e-06
-5.01777e-06
-5.30995e-06
-7.09339e-06
-6.04934e-06
-3.75155e-06
-4.33848e-06
-3.16531e-06
-4.45134e-06
-3.6389e-06
-5.29489e-06
-3.67603e-06
-4.45563e-06
-4.86659e-06
-4.43623e-06
-3.98548e-06
-4.33293e-06
-3.84673e-06
-3.60768e-06
-3.91129e-06
-4.65442e-06
-3.39234e-06
-3.57201e-06
-2.92268e-06
-3.98628e-06
-4.62305e-06
-4.91011e-06
-4.20458e-06
-4.51725e-06
-5.98618e-06
-4.46462e-06
-3.86481e-06
-5.6359e-06
-3.89799e-06
-4.12672e-06
-4.72635e-06
-4.25246e-06
-3.58982e-06
-4.44441e-06
-4.50541e-06
-4.00719e-06
-3.4778e-06
-3.61418e-06
-3.20118e-06
-3.13857e-06
-3.94428e-06
-3.467e-06
-3.60315e-06
-3.1818e-06
-3.06234e-06
-3.18972e-06
-3.1221e-06
-3.0492e-06
-2.68069e-06
-3.33216e-06
-3.14007e-06
-2.64734e-06
-3.63634e-06
-3.06895e-06
-3.22169e-06
-3.06294e-06
-2.79124e-06
-2.61489e-06
-3.61393e-06
-3.1338e-06
-4.21063e-06
-3.6995e-06
-3.65673e-06
-3.25026e-06
-3.85853e-06
-3.40184e-06
-3.07557e-06
-2.95505e-06
-3.28999e-06
-3.08063e-06
-3.10959e-06
-2.92374e-06
-3.0485e-06
-3.11304e-06
-2.92465e-06
-3.28919e-06
-2.71123e-06
-2.9043e-06
-2.5995e-06
-3.03021e-06
-2.88171e-06
-3.38676e-06
-2.78821e-06
-2.53253e-06
-3.1252e-06
-3.39558e-06
-3.28627e-06
-2.8485e-06
-2.77274e-06
-2.93223e-06
-2.92932e-06
-9.13501e-07
1.11107e-07
-2.39273e-08
-3.88504e-07
-2.55834e-07
-5.09498e-07
-3.78679e-07
-8.12148e-07
-6.20219e-07
-9.79685e-07
-1.69095e-06
-1.33292e-06
-2.91012e-06
-5.71057e-06
-4.7068e-06
-3.31307e-06
-4.62283e-06
-3.61958e-06
-4.54008e-06
-3.69024e-06
-6.01683e-06
-3.8105e-06
-5.2098e-06
-4.65686e-06
-5.91776e-06
-4.29933e-06
-6.44801e-06
-4.92501e-06
-6.53543e-06
-4.81127e-06
-7.0932e-06
-7.97226e-06
-5.31154e-06
-5.85179e-06
-4.22982e-06
-5.21469e-06
-5.30399e-06
-6.4454e-06
-4.50669e-06
-5.76436e-06
-1.31437e-06
-1.79989e-06
-1.76234e-06
-2.55224e-06
-3.81005e-06
-3.57641e-06
-9.59563e-07
-1.81769e-06
-3.63089e-06
-4.85232e-06
-3.83835e-06
-4.5335e-06
-3.75501e-06
-2.06516e-06
-1.41956e-06
-2.34477e-06
-2.15877e-06
-2.45719e-06
-6.85648e-07
-1.64769e-06
-2.19784e-06
-1.68824e-06
-3.7963e-06
-2.54221e-06
-1.89814e-06
-2.00663e-06
-1.29099e-06
-7.80475e-07
-1.06324e-06
-1.51537e-06
-1.05405e-06
-1.55532e-06
-1.54981e-06
-2.36955e-06
-1.99715e-06
-3.67846e-06
-5.27885e-07
-2.87389e-06
-2.78735e-06
-2.29088e-06
-2.97285e-06
-2.52791e-06
-3.82179e-06
-3.04126e-06
-3.94086e-06
-3.52344e-06
-3.4114e-06
-3.16919e-06
-4.04621e-06
-3.53241e-06
-5.61603e-06
-1.1799e-06
-2.70497e-06
-2.49198e-06
-4.67139e-06
-1.54628e-06
-2.18846e-06
-1.21707e-06
-1.22925e-06
-1.26766e-06
-7.77462e-07
-1.00733e-06
-1.42418e-06
-1.51713e-06
-2.87868e-06
-1.11088e-06
-8.87253e-07
-2.7123e-06
-2.6732e-06
-7.29892e-07
-2.48926e-06
-2.93833e-06
-3.20029e-06
-2.09731e-06
-2.46734e-06
-2.72069e-06
-8.52671e-07
-2.39152e-06
-1.15963e-06
-2.71962e-06
-3.65378e-06
-3.77981e-06
-1.7487e-06
-1.56345e-06
-1.87238e-06
-1.86831e-06
-7.62364e-07
-2.0119e-06
-1.96567e-06
-8.38656e-07
-2.17914e-06
-1.91103e-06
-2.6418e-06
-2.3924e-06
-3.1264e-06
-2.5451e-06
-2.92337e-06
-2.71815e-06
-2.97437e-06
-2.94605e-06
-2.79703e-06
-1.14233e-06
-1.51468e-06
-2.44939e-06
-3.06391e-06
-1.23646e-06
-2.19246e-06
-1.59737e-06
-2.31869e-06
-1.25899e-06
-1.39268e-06
-1.30406e-06
-9.18889e-07
-8.25406e-07
-1.31281e-06
-1.97684e-06
-2.27352e-06
-1.20852e-06
-1.18643e-06
-1.28078e-06
-1.73938e-06
-1.54281e-06
-1.5793e-06
-1.4465e-06
-2.15885e-06
-1.49186e-06
-2.40509e-06
-2.21928e-06
-2.52314e-06
-2.25658e-06
-2.43567e-06
-1.89148e-06
-1.73126e-06
-2.01504e-06
-1.29154e-06
-1.37591e-06
-1.83186e-06
-1.53036e-06
-1.46068e-06
-1.58587e-06
-1.25473e-06
-1.78661e-06
-1.9901e-06
-1.51676e-06
-1.49538e-06
-1.53877e-06
-1.29629e-06
-1.7479e-06
-1.62157e-06
-1.56215e-06
0.00222483
0.00158887
0.00115647
0.000708519
0.000888136
0.000876053
0.000957052
0.000924934
0.00628486
0.00403174
0.00251026
0.00354858
0.00202498
0.00242335
0.00156481
0.00179123
0.00565848
0.00255722
0.00318784
0.00287476
0.00394404
0.0033391
0.00560939
0.00386663
0.0060421
0.00480948
0.00608605
0.00548423
0.00539495
0.000833662
0.00134624
0.00142966
0.000913922
0.000944753
0.000913182
0.00102235
0.000975404
0.00116863
0.000840952
0.00153691
0.00103644
0.00237758
0.00104181
0.00113483
0.00117575
0.00124545
0.00116049
0.000903976
0.00117745
0.00121877
0.00122074
0.0014198
0.00158303
0.00181714
0.00179336
0.00341395
0.00428649
0.00250797
0.00322971
0.00195908
0.00279672
0.00338099
0.00289074
0.00454988
0.00356924
0.00105165
0.00201109
0.00119851
0.00153599
0.00103292
0.00150131
0.00136485
0.00240291
0.00193991
0.0012082
0.0023283
0.00203663
0.00448285
0.00388556
0.00394019
0.00219916
0.00219263
0.00135609
0.00188576
0.00281222
0.00300994
0.00257183
0.00289531
0.00250609
0.00161379
0.00209958
0.00155879
0.00202942
0.00266962
0.00295992
0.00291444
0.00271571
0.00180028
0.00180951
0.00190971
0.00223612
0.00153654
0.00164249
0.00217797
0.00270837
0.00194094
0.0022
0.00173617
0.00194303
0.00232539
)
;
    }
    base
    {
        type            calculated;
        value           nonuniform List<scalar> 
14244
(
0.00104537
0.00064337
0.000361615
0.00105042
0.00125803
0.00119453
0.000763542
0.000343648
0.000181831
8.84353e-05
3.65553e-05
1.96485e-05
9.42375e-06
8.50533e-06
7.81163e-06
7.68602e-06
9.07546e-06
1.12428e-05
2.22822e-05
2.50294e-05
3.23647e-05
3.26101e-05
3.99844e-05
5.70153e-05
7.86603e-05
7.01365e-05
3.78305e-05
2.61082e-05
2.9324e-05
1.94541e-05
2.80471e-05
2.56798e-05
2.47648e-05
3.4228e-05
3.15512e-05
5.61565e-05
5.8086e-05
9.45654e-05
9.55461e-05
0.00011795
0.000118971
0.000190522
0.000175512
0.000250831
0.00024773
0.0002841
0.000287003
0.000315826
0.000313809
0.00034124
0.000348539
0.000349099
0.000356805
0.000347606
0.000355621
0.00031905
0.000333946
0.000278926
0.000300033
0.00026618
0.000275416
0.000228814
0.000240695
0.000200004
0.00021273
0.000165518
0.000172434
0.00013563
0.000137316
9.07994e-05
0.00010553
5.90988e-05
0.00204858
0.00216733
0.0018361
0.00209487
0.00211873
0.00176271
0.00186811
0.00116888
0.00120607
0.000969749
0.000882871
0.000624521
0.000658018
0.000428046
0.00038367
0.000287539
0.000297651
0.000199091
0.000194498
0.000160867
0.000165904
0.000135162
0.000154498
0.00011281
0.000114703
9.56089e-05
9.82161e-05
8.29003e-05
6.54992e-05
8.13297e-05
8.01933e-05
0.000513327
0.00051532
0.000919682
0.00144506
0.000942375
0.000501185
0.000250725
0.000121477
5.89408e-05
2.68166e-05
1.4458e-05
3.17951e-05
2.73146e-05
9.27888e-06
8.64264e-06
1.10101e-05
1.38449e-05
1.4653e-05
1.97883e-05
2.45483e-05
3.16996e-05
3.46035e-05
3.99527e-05
5.02837e-05
0.000356561
6.32302e-05
0.000563401
0.00124427
0.000528776
0.000811852
0.000396769
0.00095112
0.00142615
0.00108561
0.000556078
0.000287795
0.000154187
6.64623e-05
3.21032e-05
1.94003e-05
2.42946e-05
3.6847e-05
4.18403e-05
5.09111e-05
6.12864e-05
0.00141982
0.000901594
0.000490231
0.000234134
0.000100179
5.00849e-05
2.54435e-05
1.24796e-05
5.977e-05
4.72495e-05
2.97877e-05
3.99816e-05
0.00123455
0.00166204
0.00135291
0.00190259
0.00214539
0.001104
0.00107147
0.000577171
0.000333731
0.000118612
5.7958e-05
2.57526e-05
1.32946e-05
1.24259e-05
2.62533e-05
7.35196e-05
3.41516e-05
4.14333e-05
2.17296e-05
2.76246e-05
3.74737e-05
4.77877e-05
0.00112268
6.73112e-05
7.35959e-05
3.18491e-05
3.23907e-05
3.63451e-05
4.97353e-05
5.82898e-05
8.01857e-05
0.000855987
0.00120155
3.10688e-05
4.5432e-05
2.69934e-05
3.20648e-05
2.36009e-05
3.2257e-05
3.15647e-05
3.22298e-05
4.75558e-05
4.86409e-05
9.9068e-05
0.000100249
0.000113139
0.000113207
0.000179627
0.000180461
0.000269145
0.000253737
0.000297815
0.000294645
0.000337572
0.000339329
0.000365449
0.000374658
0.000379514
0.000381753
0.000370588
0.000372735
0.000335066
0.000361846
0.00031097
0.000325825
0.000287379
0.000296488
0.000241228
0.000244177
0.000210887
0.000203951
0.000166661
0.000167868
0.000137499
0.000138355
0.000101857
8.43967e-05
0.000102229
0.00172043
0.000794775
0.000779636
0.00191406
0.00183433
0.00165591
0.00113921
0.00137713
0.000753529
0.000819875
0.000631247
0.000578952
0.000298776
0.000350558
0.000231047
0.000242792
0.000196563
0.000174511
0.00014377
0.000136607
0.000131822
0.000117765
0.000103023
0.000100823
7.89295e-05
8.12981e-05
1.55107e-05
2.31291e-05
4.26902e-05
5.19053e-05
0.00169928
0.00208012
0.000604859
0.000626488
0.00153157
0.000852707
0.000423954
0.000208051
8.02692e-05
3.39064e-05
1.84417e-05
0.000568659
1.2837e-05
1.2801e-05
1.74731e-05
0.000512183
0.00109796
4.17541e-05
7.59352e-05
0.00156181
4.34983e-05
0.000175096
6.86538e-05
0.000334732
0.0018767
0.000744458
7.76849e-05
1.54977e-05
3.09992e-05
5.46832e-05
8.09485e-05
2.33358e-05
4.83107e-05
0.000112653
0.000262622
0.00199555
0.00159881
5.02064e-05
0.000837226
0.001792
6.28819e-05
5.38418e-05
0.00148647
0.00153864
0.00234732
0.00224267
0.00265828
2.41125e-05
0.000335757
0.00189398
0.00221898
0.00014868
5.23078e-05
6.43959e-05
5.13691e-05
3.809e-05
3.2092e-05
0.000862233
6.27024e-05
0.00111605
0.0011153
0.0025394
0.00262755
4.98459e-05
6.60944e-05
0.000114276
0.00010393
0.00124894
0.00184259
3.38962e-05
5.18512e-05
0.00050482
0.000508805
2.65794e-05
3.20249e-05
3.5113e-05
3.6644e-05
5.07547e-05
5.29768e-05
0.000100858
8.69123e-05
0.000125534
0.000125998
0.000188513
0.000189281
0.000260424
0.000261646
0.000321304
0.000323267
0.000363496
0.000369428
0.000398748
0.000402325
0.000414868
0.000416567
0.000394459
0.000398229
0.000368987
0.000372442
0.000334062
0.000336575
0.000301626
0.000303299
0.000249322
0.000245123
0.00020429
0.000231863
0.000168721
0.000174444
0.000133982
0.00014449
0.0012226
0.00117628
0.00130773
4.75662e-05
5.93299e-05
0.000691601
0.000678377
0.00103671
0.000746446
0.000816095
0.00042784
0.000474274
0.000259178
0.000316097
0.000152929
0.000198481
0.000122976
0.00014011
9.67782e-05
0.000100634
8.31471e-05
8.12203e-05
7.79776e-05
7.72958e-05
6.3215e-05
4.49233e-05
5.75402e-05
2.64017e-05
1.51924e-05
2.3559e-05
1.4297e-05
6.13906e-05
7.01435e-05
7.10436e-05
0.000220543
0.000243494
0.00100443
0.00262201
0.00189959
0.000757833
0.00083595
0.000149688
4.86053e-05
0.000292786
3.62761e-05
1.75364e-05
2.12675e-05
2.68133e-05
0.000904409
8.75947e-05
3.93288e-05
4.8748e-05
3.13733e-05
3.13664e-05
9.96612e-05
8.02145e-05
3.72763e-05
0.000111068
0.000952765
0.000260076
0.0010142
8.44817e-05
0.00152464
0.00147174
0.00248522
0.00211367
0.00192022
7.40643e-05
0.000370855
0.000359476
4.73096e-05
4.34266e-05
0.0028176
0.00268386
7.19778e-05
0.000111074
8.16146e-05
0.00204217
0.000801334
0.000585182
0.000491407
3.17951e-05
3.66574e-05
3.84061e-05
4.16875e-05
5.5954e-05
5.9287e-05
8.2281e-05
8.2802e-05
0.000139785
0.000139242
0.000197934
0.000198609
0.000273196
0.000274735
0.000339245
0.000341882
0.000385225
0.000385782
0.000422081
0.000424371
0.000431256
0.000427286
0.000415854
0.000430426
0.000369388
0.000400676
0.000349582
0.000356458
0.00030355
0.000305442
0.000245245
0.000254311
0.000204874
0.000211628
0.000183532
0.000138559
0.000157885
0.00161466
0.00168389
0.00065898
6.29114e-05
8.01964e-05
0.000729853
0.000634259
0.00309236
0.0031859
0.00050962
0.000587473
0.000234303
0.000334314
0.000164825
0.000214056
0.000129967
0.000139595
0.000102182
8.86464e-05
7.55447e-05
7.90828e-05
6.20207e-05
6.43259e-05
0.00114634
0.00236911
0.00305485
5.2806e-05
0.000897144
0.00116725
0.00242624
0.000720977
0.000115607
3.13915e-05
4.25748e-05
0.000156077
4.66475e-05
4.582e-05
9.32105e-05
6.82306e-05
0.000101453
0.000143787
0.00222152
0.000252707
0.000111184
4.69285e-05
3.82455e-05
4.95704e-05
6.14418e-05
7.96849e-05
2.91714e-05
5.59904e-05
4.03652e-05
7.7562e-05
9.65619e-05
8.31757e-05
8.54907e-05
9.82778e-05
6.37692e-05
0.000926892
0.000872902
0.00120467
0.000121774
0.000111148
0.000155122
9.26899e-05
0.000389734
0.00235465
0.00290006
6.67898e-05
0.00204569
0.00164314
0.00151133
0.000554557
0.000536571
4.4298e-05
5.03874e-05
6.80835e-05
6.16925e-05
9.08784e-05
9.07333e-05
0.000142009
0.000145641
0.00023112
0.00023258
0.000303646
0.000294618
0.000369834
0.000378188
0.000432676
0.000432072
0.000463534
0.000466074
0.000461631
0.000460508
0.000442564
0.000447893
0.000411633
0.0004183
0.000346591
0.000370584
0.000294721
0.000308091
0.000250898
0.000252555
0.000204076
0.000206338
8.80395e-05
0.00145643
0.00125754
0.00197157
3.07779e-05
0.000717877
0.000685752
0.00298569
0.00294383
0.00054464
0.000850424
0.00256237
0.002761
0.00218317
0.000378597
0.000503935
0.000237517
0.000279193
0.000147846
0.000219903
0.00010935
0.000136386
9.19928e-05
0.000101767
6.51888e-05
8.0752e-05
0.00271014
0.00281757
4.68402e-05
6.2787e-05
0.000174268
0.000160863
0.000114251
0.000898985
5.8365e-05
7.13353e-05
6.87708e-05
0.00015701
8.00147e-05
6.72965e-05
0.00251134
6.97213e-05
0.00196928
0.000269054
9.68516e-05
0.000107118
0.000103732
0.000100373
0.000121283
0.00032982
9.19329e-05
9.40503e-05
8.6335e-05
0.000235186
0.00104394
9.17057e-05
0.00011964
0.00012676
7.20646e-05
0.000157223
0.000248645
0.00197688
0.00012846
0.00146393
0.00121971
0.000546365
0.000297903
0.00029083
6.9092e-05
9.29019e-05
8.9417e-05
0.000145105
0.000129122
0.000249783
0.000229534
0.00035648
0.000344817
0.000395222
0.00041447
0.00045483
0.000472117
0.00049135
0.000510365
0.000491921
0.000503901
0.000482516
0.000477541
0.000442956
0.000451712
0.000383674
0.00038722
0.000328779
0.000320119
0.00023269
0.000264955
0.000191568
0.000147029
0.000217619
4.97651e-05
0.000789211
0.000662178
0.00274411
0.000748521
0.00109793
0.000347323
0.000256332
0.000355117
0.000171208
0.000223292
0.000139399
0.000160406
0.000107241
0.000101224
0.000130064
0.00258205
0.0025935
0.000485651
0.000470281
0.00065895
0.00253718
0.00244645
0.000108188
8.10594e-05
0.000130135
0.000127601
9.10052e-05
0.000134263
0.000119554
0.000131457
0.00171707
0.000105857
0.000830833
0.00174716
0.00136946
0.00161408
0.000451739
0.000117763
0.000158522
0.000118473
0.000179233
0.00277078
0.00272188
0.00228265
0.0021926
0.000128704
0.000131483
0.000104705
0.000144775
0.000150122
0.00017411
0.000168947
0.000621684
0.00121969
0.00148164
0.00131961
0.000155871
0.00208639
0.000154368
0.000161564
0.000277213
0.000278612
0.00037142
0.000393565
0.000442246
0.000456625
0.000506542
0.000526076
0.000568846
0.000562071
0.000559985
0.000568388
0.000484969
0.000548265
0.000458363
0.00046538
0.000410584
0.000424251
0.000341161
0.000343301
0.00028361
0.000280948
0.000254562
0.000224202
0.000472182
0.000608084
0.000354001
0.00187272
0.00177733
0.000291681
0.000295655
0.000267815
0.000835691
0.000833966
0.00016077
0.0026943
0.000171866
0.00120688
0.000121184
0.000159443
0.00016735
0.000154109
0.000202794
0.000664656
0.00209781
0.00223112
0.000209322
0.000184455
0.000227481
0.00186061
0.00169583
0.00019148
0.000181732
0.000249053
0.000894759
0.000838736
0.00137241
0.000430634
0.000641644
0.000421955
0.000556844
0.00138633
0.0014967
0.00159329
0.000321462
0.000282947
0.000423255
0.000428738
0.000512132
0.000511019
0.000567177
0.000605646
0.000612166
0.000615657
0.000651374
0.000650327
0.000593598
0.000596816
0.000513073
0.000515505
0.000458935
0.000467557
0.000383908
0.000428
0.000289159
0.000290902
0.000210238
0.000173049
0.000419441
0.000533941
0.000191629
0.000194998
0.000162315
0.00111281
0.000780779
0.00103935
0.000967646
0.00125209
0.00116064
0.00204763
0.0020952
0.00202719
0.00103712
0.00019045
0.000282926
0.000361457
0.000853393
0.000314696
0.00034785
0.000415586
0.000225187
0.00061297
0.000550629
0.00156243
0.00137576
0.0014708
0.00188602
0.000752404
0.000233165
0.000222341
0.000218182
0.000852583
0.000238089
0.000940366
0.00107475
0.000480536
0.000235677
0.000301808
0.000425501
0.00043234
0.000559725
0.000520897
0.00065247
0.000676063
0.000737205
0.000742693
0.000760505
0.000776627
0.000714365
0.000719642
0.00066711
0.000671305
0.00056203
0.000566462
0.000811119
0.00104442
0.000923203
0.000774104
0.000646979
0.000209925
0.0003831
0.000491213
0.00027002
0.000456934
0.000259754
0.00121762
0.00104792
0.00166256
0.0018181
0.00179332
0.00170824
0.00168087
0.000333082
0.000357085
0.000548073
0.000574642
0.000638325
0.000642466
0.000865002
0.000838961
0.00094782
0.000957934
0.000853028
0.000908442
0.000786301
0.000699831
0.000609133
0.000881817
0.000806973
0.000194217
0.00124951
0.00102252
0.0015895
0.000448733
0.000508535
0.000493721
0.000560737
0.000596662
0.000717589
0.000245977
0.000940053
0.00134642
0.00130372
0.000915571
0.0011691
0.00111234
0.00104358
0.00150355
0.00143114
0.0014805
0.00106883
0.000585555
0.000334804
0.000542811
0.000664621
0.000715509
0.000801056
0.00121713
0.000770254
0.00116657
1.55735e-06
1.66244e-06
2.04147e-06
2.30267e-06
2.41098e-06
2.51041e-06
2.60629e-06
2.73451e-06
2.82435e-06
3.03233e-06
3.02007e-06
3.18784e-06
3.15023e-06
2.67245e-06
1.33899e-06
1.96677e-06
2.06672e-06
2.14379e-06
2.24965e-06
2.40317e-06
2.54966e-06
2.85038e-06
2.76554e-06
2.73457e-06
1.4772e-06
1.61867e-06
2.42541e-06
2.59171e-06
-4.89981e-07
-5.52284e-07
-5.48263e-07
-5.25227e-07
-5.25038e-07
-5.67078e-07
-5.23377e-07
-4.79583e-07
-3.46274e-07
-1.81248e-07
-4.89445e-09
2.29493e-08
-3.01103e-08
-6.5687e-08
-8.38975e-09
4.69108e-08
1.19692e-07
2.06834e-07
2.98414e-07
3.56123e-07
3.68393e-07
-6.25888e-08
-6.63022e-08
-6.13365e-08
-5.80555e-08
-2.52161e-08
-1.86533e-08
8.00335e-09
2.66756e-08
5.8209e-08
4.15123e-08
1.28719e-07
1.05908e-07
1.85098e-07
1.73488e-07
2.00006e-07
1.85247e-07
2.42919e-07
2.17916e-07
2.86649e-07
2.82689e-07
3.07064e-07
3.1058e-07
3.47331e-07
3.14352e-07
3.66712e-07
3.59049e-07
3.79471e-07
3.63396e-07
3.9852e-07
3.90042e-07
4.13684e-07
4.08711e-07
4.17735e-07
4.29063e-07
4.36265e-07
4.29926e-07
4.17214e-07
4.39945e-07
-6.6838e-08
-5.41861e-07
-5.90312e-07
-5.71789e-07
-6.27291e-07
-6.50139e-07
-6.48483e-07
-6.76642e-07
-6.97791e-07
-6.97098e-07
-7.18484e-07
-7.12596e-07
-7.94783e-07
-7.41239e-07
-7.76262e-07
-7.96514e-07
-7.65565e-07
-7.41904e-07
-7.45531e-07
-7.07757e-07
-7.1302e-07
-6.83136e-07
-6.4719e-07
-6.36068e-07
-5.76324e-07
-5.713e-07
-4.20438e-07
-4.60717e-07
-3.54156e-07
-4.24726e-07
-2.84499e-07
-3.549e-07
-2.38995e-07
-2.75226e-07
-1.88218e-07
-2.12366e-07
-1.16998e-07
-1.53031e-07
3.92908e-07
-5.71624e-07
-5.62942e-07
-5.73162e-07
-5.40058e-07
-5.31175e-07
-5.31516e-07
-4.67955e-07
-5.16013e-07
-3.7208e-07
-2.87883e-07
-7.75695e-08
-3.17138e-09
-4.60198e-08
-3.91967e-08
-1.53173e-08
7.77366e-08
1.34858e-07
2.5538e-07
3.34333e-07
-5.55288e-07
3.43472e-07
-5.20619e-08
-5.4446e-07
-5.63633e-07
-5.2303e-07
3.66947e-07
-5.62641e-07
-5.97421e-07
-5.56669e-07
-5.38598e-07
-4.54986e-07
-3.10424e-07
-1.30264e-07
-3.13665e-08
-6.58613e-08
-2.47233e-09
6.203e-08
1.12989e-07
2.54453e-07
3.2528e-07
-5.14177e-07
-4.7183e-07
-3.68216e-07
-2.05871e-07
-8.55763e-08
-2.87727e-08
3.38258e-08
1.27953e-07
1.52515e-07
2.94563e-07
3.66394e-07
-5.58972e-07
-5.82422e-07
-5.31686e-08
-7.34835e-08
-5.91122e-07
-9.061e-08
-5.95292e-07
-5.78192e-07
-5.90905e-07
-5.85808e-07
-5.04373e-07
-4.46127e-07
-5.11697e-07
-3.82456e-07
-2.37792e-07
-1.54732e-07
-2.33308e-07
-1.22409e-07
-5.40905e-08
-6.52191e-09
-8.27508e-08
-1.03455e-07
-6.92502e-10
1.27617e-07
1.43954e-07
2.88415e-07
3.60741e-07
-5.7085e-07
-6.4077e-07
-6.25982e-07
-5.80147e-07
-5.89568e-07
-6.04862e-07
-6.1902e-07
3.77567e-07
-8.72465e-08
-1.08897e-07
-5.59237e-07
-5.97659e-07
-5.69902e-07
-5.11854e-10
-7.10746e-08
1.13886e-08
-9.58523e-09
2.75036e-08
-8.2588e-09
7.16547e-08
4.2261e-08
1.52386e-07
7.97727e-08
1.76559e-07
1.32467e-07
1.98824e-07
1.9156e-07
2.46185e-07
1.83728e-07
2.75091e-07
2.48584e-07
3.01357e-07
2.63089e-07
3.30588e-07
2.71763e-07
3.62781e-07
3.23176e-07
3.83566e-07
3.55571e-07
3.81666e-07
3.35295e-07
4.23304e-07
3.87884e-07
4.59903e-07
4.01854e-07
4.2849e-07
4.00647e-07
4.18569e-07
-5.71884e-07
-6.04319e-07
-6.28129e-07
-6.55196e-07
-6.81409e-07
-6.74745e-07
-6.91847e-07
-6.5835e-07
-5.92644e-07
-6.08384e-07
-5.88345e-07
-5.37645e-07
-6.29985e-07
-6.20467e-07
-6.2255e-07
-5.9356e-07
-6.19095e-07
-5.81579e-07
-5.33536e-07
-5.28159e-07
-4.95719e-07
-4.2039e-07
-4.7389e-07
-4.40658e-07
-4.21964e-07
-3.60478e-07
-3.27095e-07
-3.2286e-07
-3.02922e-07
-3.42551e-07
-2.72555e-07
-2.89496e-07
-2.10187e-07
-2.36085e-07
-1.53136e-07
3.8795e-07
-5.65371e-07
-5.95582e-07
-5.88487e-07
-6.75608e-08
-1.48391e-07
-5.45347e-08
-9.02643e-08
-6.11337e-07
-5.95251e-07
-1.34109e-07
-5.54643e-07
-1.13436e-07
-1.52809e-08
3.81077e-08
-3.22966e-08
2.53298e-08
-8.763e-08
1.06836e-07
2.27934e-07
3.32934e-07
3.76806e-07
-6.06298e-07
-6.22273e-07
3.14739e-07
1.89821e-07
-4.02575e-07
-3.87031e-07
1.44999e-07
3.24148e-07
-5.6662e-07
-5.48648e-08
2.40275e-07
1.33193e-07
-6.39776e-07
-1.71144e-07
-2.52996e-07
-1.51421e-07
-1.06932e-07
-1.58138e-07
-5.65561e-07
-5.15765e-07
5.02614e-08
3.20054e-07
2.64261e-07
-9.29221e-08
-1.46833e-07
-6.14125e-07
2.5736e-08
4.47758e-08
-6.54704e-07
1.63393e-07
1.78372e-07
-6.13597e-07
3.96578e-07
-7.0978e-07
-6.77986e-07
-5.47975e-08
-5.47944e-08
-9.83397e-08
-3.44453e-09
-4.44326e-08
5.32369e-08
-9.19579e-09
9.72315e-08
4.9283e-08
1.07366e-07
7.70769e-08
1.5593e-07
9.74286e-08
1.99982e-07
1.39759e-07
2.23216e-07
1.46106e-07
2.40457e-07
1.77194e-07
2.94199e-07
2.26059e-07
3.08861e-07
2.74775e-07
3.32976e-07
3.16275e-07
3.40973e-07
3.23435e-07
-1.42908e-07
-6.93284e-07
-6.02458e-07
-6.67944e-07
-5.28726e-07
-5.80044e-07
-5.50347e-07
-4.72689e-07
-4.82574e-07
-4.00633e-07
-4.14538e-07
-3.91361e-07
-3.69657e-07
-3.9467e-07
-3.42238e-07
-3.90825e-07
-3.68932e-07
-3.74632e-07
-2.93869e-07
-2.79217e-07
-3.27645e-07
-3.94308e-07
-2.63653e-07
-2.57891e-07
-2.17902e-07
-2.50236e-07
-2.28356e-07
-2.34619e-07
-2.41133e-07
-2.26049e-07
3.0522e-07
2.86266e-07
2.86994e-07
3.66046e-07
-2.14736e-07
-6.52912e-07
-1.89205e-07
-1.53231e-07
-6.17771e-07
-1.32346e-07
-8.53899e-08
-1.32532e-07
-1.80883e-07
-6.1641e-07
-6.4074e-07
-6.41568e-07
-1.35132e-07
-5.27671e-08
-6.22975e-07
9.61482e-08
-6.22584e-07
5.02091e-08
3.43772e-07
-6.23802e-07
-6.18988e-07
-6.92546e-07
-7.40965e-07
-2.87602e-07
-3.75067e-07
-2.56181e-07
-6.69463e-07
-6.98577e-07
3.34721e-07
1.09275e-07
-2.75645e-08
-3.17242e-07
-2.88906e-07
-6.75694e-07
-6.3352e-07
-6.15009e-07
-6.21459e-07
-6.6276e-07
-6.57542e-07
-5.38291e-07
-4.18215e-07
-6.82672e-07
-6.78661e-07
-6.34888e-07
-3.01745e-07
-3.72617e-07
-3.12379e-07
1.19712e-07
-1.3957e-07
-6.3571e-08
-1.28037e-07
-5.0539e-08
-6.68542e-08
3.9239e-08
-5.15157e-08
2.98905e-08
-1.13801e-08
5.37207e-08
-5.49156e-09
6.25395e-08
3.68741e-08
1.28261e-07
2.90032e-08
1.80998e-07
1.03178e-07
2.50099e-07
1.63042e-07
2.93377e-07
2.32654e-07
3.03446e-07
2.8466e-07
-5.99506e-07
-6.56247e-07
-1.26743e-07
-5.27809e-07
-4.53301e-07
-5.19265e-07
-4.42975e-07
-4.77329e-07
-3.19819e-07
-3.98326e-07
-3.13291e-07
-3.31017e-07
-3.39455e-07
-3.95224e-07
-3.61229e-07
-3.8109e-07
-2.66468e-07
-2.85378e-07
-2.60331e-07
-2.6234e-07
-2.28295e-07
-2.00178e-07
-2.33286e-07
-1.77711e-07
2.18964e-08
-4.65743e-08
7.20094e-08
-6.32029e-07
-6.36348e-07
-1.23013e-07
-5.81191e-08
-5.92254e-07
-5.76479e-07
-6.37263e-07
-1.14109e-07
-3.44146e-07
-7.3666e-07
9.48408e-08
1.6703e-07
-6.8965e-07
-6.75705e-07
-5.7723e-07
-5.8769e-07
-7.07803e-07
-2.25152e-07
2.95749e-07
-2.29157e-07
2.86977e-07
-7.57077e-07
-1.72009e-07
2.78185e-07
-7.92303e-07
-2.88313e-07
-2.00518e-07
-7.74905e-07
-7.6325e-07
3.59609e-08
-5.41473e-07
-6.37132e-07
-6.85876e-07
-3.60875e-07
2.39216e-07
-3.92066e-07
-1.07282e-07
-1.1544e-07
1.82261e-07
-7.77325e-07
-7.58471e-07
-1.28791e-07
-1.49515e-07
-9.22993e-08
-1.19733e-07
-9.26729e-08
-1.19143e-07
-5.17806e-08
-9.06317e-08
-5.62215e-08
-1.03049e-07
5.51353e-09
-6.80488e-08
2.96776e-08
-1.78609e-08
7.5585e-08
4.3126e-09
2.19271e-07
1.0576e-07
2.31053e-07
2.42e-07
1.86702e-07
-5.76984e-07
1.98476e-07
-8.09211e-07
-7.76704e-07
-7.93408e-07
-5.44955e-07
-5.97614e-07
-4.92225e-07
-5.79127e-07
-4.35915e-07
-4.95531e-07
-4.58102e-07
-5.06773e-07
-3.7069e-07
-4.60509e-07
-2.94363e-07
-3.78927e-07
-2.16142e-07
-3.0893e-07
-2.50723e-07
-2.24367e-07
-1.90437e-07
-7.27516e-07
-2.0235e-07
-6.38148e-07
2.18657e-07
-4.3518e-07
1.32789e-07
7.68222e-08
1.47904e-07
-6.05125e-07
-4.02907e-07
-4.41199e-07
-4.4623e-07
-1.5937e-07
-5.67953e-07
-7.62356e-07
-2.58929e-07
-6.11247e-07
-6.63252e-07
-8.33028e-07
-8.28729e-07
-6.95744e-08
-1.90245e-08
-3.86717e-07
-6.23453e-07
-2.10102e-07
-1.02627e-07
-6.70952e-07
-7.02728e-07
-2.47538e-07
-7.9441e-07
-7.93417e-07
-6.44788e-07
-4.60121e-07
-1.43534e-07
-7.98298e-07
-8.04476e-07
-8.51721e-07
-7.36788e-07
-6.22434e-07
-6.25102e-07
-7.4332e-07
-7.41921e-07
-1.63073e-07
-1.65893e-07
-1.65462e-07
-1.78979e-07
-1.52825e-07
-2.04326e-07
-1.75803e-07
-2.06397e-07
-1.19303e-07
-2.2564e-07
-6.67579e-08
-1.40577e-07
-4.34608e-08
-1.48264e-07
4.80767e-08
-5.89192e-08
1.4409e-07
-6.03033e-07
-5.77664e-07
-6.57749e-07
-5.5348e-07
-6.4667e-07
-4.82195e-07
-5.38967e-07
-3.83907e-07
-4.4426e-07
-2.95002e-07
-3.12506e-07
-2.03796e-07
-5.9212e-07
-7.30352e-08
-6.0844e-07
-8.54949e-07
-3.27198e-07
-2.1658e-07
-6.97813e-07
-6.62028e-07
-7.69727e-07
-8.37511e-07
-4.81324e-07
-6.43553e-07
-7.70784e-07
-7.06023e-07
-8.18634e-07
7.24708e-08
5.11832e-08
1.50825e-08
-6.99823e-08
-4.10845e-08
-4.53547e-07
-4.35029e-07
-3.6799e-07
-5.53143e-07
-5.70484e-07
-5.51042e-07
-6.30272e-07
-6.24743e-07
-2.35343e-07
-7.19307e-08
-7.52064e-07
-2.75767e-07
-2.91312e-07
-3.20453e-07
-3.40409e-07
-3.46961e-07
-3.98555e-07
-2.77549e-07
-4.08703e-07
-2.50733e-07
-3.34989e-07
-1.63792e-07
-1.62089e-07
-2.71527e-07
-6.48545e-07
-6.33274e-07
-5.94805e-07
-6.84505e-07
-5.3989e-07
-6.48058e-07
-5.05293e-07
-5.59501e-07
-3.66627e-07
-7.12643e-07
-1.86485e-07
-2.60371e-07
-1.71517e-07
-8.71074e-07
-8.33292e-07
-7.14884e-07
-7.07703e-07
-7.5894e-07
-7.54751e-07
-8.64116e-07
-8.55624e-07
-8.61783e-07
-8.53697e-07
-4.11154e-07
-8.15015e-07
-7.89732e-07
-8.48439e-07
-7.04505e-07
-3.38834e-07
-8.19939e-07
-4.36204e-07
-8.32987e-07
-4.3287e-07
-5.43659e-07
-8.89465e-07
-8.69488e-07
-8.67261e-07
-4.12489e-07
-6.07511e-07
-4.5627e-07
-4.7954e-07
-4.57916e-07
-5.47122e-07
-3.8842e-07
-5.23977e-07
-7.45477e-07
-6.73342e-07
-7.11167e-07
-5.33478e-07
-2.25827e-07
-6.88333e-07
-6.66967e-07
-8.31111e-07
-7.70832e-07
-5.62348e-07
-4.56733e-07
-4.45566e-07
-2.9941e-07
-6.8171e-07
-3.70925e-07
-8.16984e-07
-6.3692e-07
-8.26136e-07
-8.49852e-07
-6.90587e-07
-8.73087e-07
-4.38017e-07
-4.04005e-07
-8.60736e-07
-8.8337e-07
-5.57041e-07
-5.66157e-07
-5.33674e-07
-8.00594e-07
-8.26115e-07
-7.25644e-07
-7.15903e-07
-6.17932e-07
-5.67062e-07
-6.63405e-07
-7.62465e-07
-6.43099e-07
-6.12368e-07
-6.69059e-07
1.37876e-08
1.20699e-06
1.46602e-06
1.51476e-06
1.69433e-06
1.51211e-06
1.89348e-06
1.13312e-06
1.11942e-06
1.18748e-06
1.56726e-06
7.68615e-07
7.5131e-07
1.9443e-08
1.01603e-07
9.38754e-08
1.14566e-07
1.17895e-07
1.28731e-07
1.53082e-07
1.31698e-07
1.64531e-07
1.64175e-07
1.61673e-07
1.68471e-07
1.59623e-07
1.58413e-07
1.49374e-07
1.64375e-07
1.40733e-07
1.3359e-07
1.27845e-07
1.26304e-07
7.73366e-08
9.02671e-08
1.583e-07
1.02562e-07
2.04204e-07
1.89415e-07
2.5674e-07
2.71047e-07
3.32508e-07
3.49519e-07
3.64544e-07
4.07135e-07
4.07103e-07
4.88588e-07
3.9979e-07
4.60948e-07
3.98597e-07
4.37958e-07
4.03267e-07
4.53128e-07
3.52572e-07
4.56426e-07
3.43046e-07
3.93617e-07
3.78514e-07
3.99204e-07
4.08216e-07
4.29697e-07
4.71827e-07
4.45921e-07
5.64102e-07
5.22474e-07
6.65088e-07
6.05873e-07
7.3338e-07
7.3462e-07
7.56083e-07
7.93697e-07
7.50994e-07
5.56672e-07
6.36249e-07
7.81384e-07
8.7254e-07
9.5002e-07
9.46879e-07
9.09537e-07
5.90877e-07
2.73049e-08
1.0806e-07
2.43411e-07
4.07696e-07
4.83796e-07
5.63298e-07
6.16987e-07
6.58183e-07
6.53156e-07
6.35477e-07
8.00488e-07
5.45887e-08
1.45089e-08
7.06792e-07
7.02352e-07
7.83597e-07
8.46489e-07
9.13646e-07
9.52507e-07
9.19582e-07
8.14488e-07
8.43562e-07
9.11828e-07
8.66805e-08
6.64235e-08
9.15291e-08
1.31546e-07
1.86887e-07
3.58378e-07
4.4295e-07
5.27176e-07
6.00259e-07
6.29415e-07
6.58934e-07
6.79405e-07
6.63e-07
5.65491e-07
8.36539e-07
9.65252e-07
9.72551e-07
1.82532e-07
3.49721e-07
4.55725e-07
5.42902e-07
5.93147e-07
6.43711e-07
6.80717e-07
6.72801e-07
6.30658e-07
6.67137e-07
6.83685e-07
9.5882e-07
9.82643e-07
9.55443e-07
8.84693e-07
9.30437e-07
8.38209e-07
4.83772e-07
4.28567e-07
2.45464e-07
1.21168e-07
1.89556e-07
1.99924e-07
2.16806e-07
2.26934e-07
2.37818e-07
2.22409e-07
2.33266e-07
2.09172e-07
2.35266e-07
1.95277e-07
2.16055e-07
1.83216e-07
2.05961e-07
1.62613e-07
1.704e-07
1.74446e-07
1.74672e-07
2.17526e-07
8.30068e-08
1.11163e-07
2.28882e-07
1.83865e-07
3.36263e-07
2.81152e-07
3.71411e-07
4.37111e-07
4.82244e-07
4.58929e-07
5.55515e-07
5.63863e-07
5.98363e-07
5.71268e-07
5.31077e-07
5.57764e-07
5.45358e-07
5.64136e-07
4.98168e-07
5.51296e-07
4.87611e-07
5.16033e-07
4.55124e-07
4.7199e-07
5.157e-07
5.35056e-07
5.34982e-07
5.38797e-07
5.75739e-07
5.47252e-07