/*--------------------------------*- C++ -*----------------------------------*\
| =========                 |                                                 |
| \\      /  F ield         | OpenFOAM: The Open Source CFD Toolbox           |
|  \\    /   O peration     | Version:  v2012                                 |
|   \\  /    A nd           | Website:  www.openfoam.com                      |
|    \\/     M anipulation  |                                                 |
\*---------------------------------------------------------------------------*/
FoamFile
{
    version     2.0;
    format      ascii;
    class       volVectorField;
    location    "1";
    object      U;
}
// * * * * * * * * * * * * * * * * * * * * * * * * * * * * * * * * * * * * * //

dimensions      [0 1 -1 0 0 0 0];


internalField   nonuniform List<vector> 
108993
(
(0.00171279 7.46544e-05 0.00148183)
(0.000690205 -7.73076e-05 -0.0017197)
(-0.000211064 0.0031803 0.00910851)
(0.00703071 -0.00858114 -0.0101455)
(0.000445791 -0.00247932 -0.00390218)
(3.85989e-05 -2.63685e-05 -0.000120868)
(0.00124937 -0.000157054 -0.00167238)
(0.000200682 -0.000629597 -7.53443e-06)
(-0.0122164 0.029028 -0.00942603)
(0.00225265 0.00022491 0.000263692)
(0.000263835 0.00130395 0.00291212)
(0.000227061 0.000799745 0.00315711)
(0.00412743 -0.00771984 -0.00725231)
(0.000586418 0.000718096 8.19786e-05)
(0.000130737 0.000204689 0.000662754)
(0.00781542 8.10776e-05 -8.35398e-05)
(0.00328746 0.00017436 0.000105992)
(0.00037689 0.000244994 0.000440595)
(0.00304434 -0.00995188 -0.0115052)
(0.000858646 -0.000616287 -0.00176271)
(1.54745e-05 -5.36875e-05 -0.0029495)
(0.00225115 0.00858804 -0.0302419)
(0.000475015 -8.25425e-06 -0.000814028)
(1.94399e-05 0.000222179 -0.000322819)
(0.00449173 -0.00898171 -0.00782327)
(0.00033859 -0.000172808 -0.000377149)
(-0.0173768 0.0883208 -0.00917161)
(0.000524492 -0.000447431 -0.00187415)
(0.000699997 -0.000477424 -0.00132506)
(-0.000105178 0.0003274 -0.00225512)
(-0.0170522 0.0791086 -0.0526021)
(0.00037024 0.000767677 0.000770312)
(-0.0239797 0.0856318 0.000916762)
(0.00304385 0.000238753 0.0023766)
(0.0132937 -0.00413491 -0.0283461)
(-0.00013354 3.47206e-05 -0.0030022)
(-0.027781 0.0678237 -0.0162675)
(-2.18687e-06 0.00183506 -0.00289784)
(-0.000105965 0.000198931 -0.00104287)
(-0.000140499 0.000167031 -0.00112326)
(0.000495232 -0.000190413 -0.00140461)
(-0.00452314 0.00593491 0.00340368)
(-6.83841e-07 0.000502792 0.000359111)
(0.0126486 -0.013741 -5.65193e-05)
(0.00502007 -5.22479e-05 -0.000556674)
(-3.37433e-05 2.28255e-05 -0.000653058)
(-0.02083 0.0774027 -0.000752119)
(0.00119803 8.7051e-07 -0.00111759)
(0.000565082 -7.73906e-05 -0.001022)
(0.00120405 -8.46991e-05 -0.00237936)
(-0.0201488 0.0328955 -0.0146488)
(0.00276871 -0.000259012 -0.00102751)
(0.000618259 -0.00013027 -0.0016636)
(-0.0267187 0.0228803 -0.0065006)
(0.000868532 0.000108081 0.00045048)
(0.000274563 0.000699907 0.000485545)
(-0.0155846 0.0577202 -0.0151494)
(-0.0018128 -0.00132174 -0.00290242)
(-0.000848616 0.00467493 -0.00803297)
(-0.00220093 -0.0023941 -0.00371694)
(-0.00145744 -0.000502552 -0.00388901)
(-0.00336846 -0.00487677 -0.00741807)
(-0.000560304 0.000384573 -0.00249633)
(0.000569803 -3.59235e-05 1.17814e-05)
(0.000645106 -0.016306 -0.00471093)
(0.000478819 -0.000249268 -0.00068672)
(0.00201596 -0.0103818 -1.57962e-05)
(0.000396111 -0.00225523 -0.00735971)
(0.00113314 0.000739759 0.000652212)
(0.00477022 -1.25261e-05 -3.46201e-05)
(-5.32672e-07 0.000374122 -0.000451791)
(0.00213832 -0.00375801 -0.00867875)
(0.000361873 0.000984055 -0.00523487)
(0.000687026 -0.00295975 -0.00761768)
(0.000527587 -1.54359e-05 -0.00108747)
(-0.0309414 0.171121 0.00822775)
(0.000530633 -7.20982e-06 2.18356e-06)
(0.00330567 0.000305247 0.000881229)
(-0.00444478 0.0432066 -0.0230906)
(0.00349274 -0.0106323 0.000109528)
(-0.000252488 0.00268454 -0.00080001)
(0.00123346 0.000606996 0.000664294)
(0.000293995 0.00931737 -0.0109028)
(-6.46463e-07 0.00129968 0.00434802)
(0.000359915 0.0001572 0.000520958)
(0.00029261 0.00041024 0.000516589)
(-0.000710363 0.0009731 0.00513829)
(0.000349195 0.000532076 0.00308452)
(-2.5508e-05 -0.00355829 -0.00259599)
(0.000387849 -0.00868579 -0.00150429)
(-0.00180055 -0.00716211 -0.00333488)
(-0.0723038 0.087955 -0.0378316)
(-0.00157618 -0.00581222 -0.000705594)
(2.45317e-05 -0.00392234 -0.00126053)
(-0.00269993 -0.00547195 -0.00146477)
(0.00122316 0.000639429 0.000839832)
(-0.0769457 0.0666335 -0.0432028)
(-0.00082048 0.00440103 -0.00111909)
(-0.0518444 0.0831335 -0.0411944)
(-0.0331354 -0.000960093 -0.00971524)
(-0.00279239 -0.00449577 -0.00315719)
(0.000317405 0.000354451 -0.0202563)
(5.43236e-05 0.000856128 0.000327134)
(0.000875616 0.00102343 0.001343)
(-0.000526647 0.00276348 -0.00279056)
(-0.00200921 -0.0068718 -2.86258e-05)
(-0.000507502 0.000900518 -0.0021943)
(0.00362653 -0.00908347 -0.0371434)
(0.00614194 0.0134168 -0.0111482)
(-0.00010339 -1.09673e-07 -0.00113887)
(0.0030893 -0.000213837 -0.000188707)
(-0.00204623 -0.00793289 -0.00245373)
(0.0021162 -0.000226838 -2.63108e-06)
(0.00248567 9.80805e-05 -0.00109413)
(-0.00138712 0.00676291 0.00105694)
(-8.73248e-06 0.000173979 -0.00168352)
(7.95556e-05 -0.00196233 -0.00388484)
(-0.000794563 0.00322142 0.00431623)
(0.00648107 8.36674e-05 0.000283851)
(-0.0487851 0.0882935 -0.0285931)
(0.00085546 0.000658165 0.000271684)
(-0.00646862 0.000774816 -0.0197459)
(0.000616569 0.000731923 -0.00152251)
(0.000160511 0.002185 0.00621928)
(7.81322e-06 0.0011627 -0.00342639)
(0.00621824 0.000172533 0.000789843)
(0.000678941 -0.000181233 -0.00134647)
(0.000142709 0.00223912 0.000825429)
(-0.00709712 0.00156565 -0.0236425)
(-0.00230746 -0.00475977 -0.0257345)
(0.00146135 0.000567537 0.00183204)
(-0.00576086 -0.00405252 -0.0232945)
(-0.00250093 0.00663813 -0.00496086)
(0.00179524 0.000192541 -0.0019619)
(-0.00218295 0.00587033 0.00120041)
(-0.00165904 0.00145312 0.0119451)
(-0.00435178 0.00436266 -0.0214116)
(-0.0016048 0.00598874 -0.00328196)
(-0.000130158 0.000750128 -0.00222908)
(0.000652367 0.000712967 0.000326335)
(-0.000198554 0.00128207 0.00693764)
(-0.0654513 -0.0258202 0.0426159)
(0.00527444 -0.000103876 -7.92998e-05)
(-0.00602575 0.00117071 -0.0236524)
(-0.00372414 0.000278804 -0.024485)
(0.000483933 0.0018384 -0.00470751)
(-0.000309258 0.00306937 -0.00185383)
(-3.10533e-05 -4.09437e-06 -0.000917825)
(-0.000112203 0.00167635 0.00656482)
(-0.000262025 0.000159262 -0.00200563)
(-0.00040469 0.000128025 -0.00213351)
(0.000314438 -0.000177975 -0.000100096)
(0.000297573 0.000217922 -0.000163514)
(-0.000310234 0.000107028 -0.0021864)
(-0.00165955 0.00879934 -0.00743936)
(0.00156042 -2.21762e-05 -0.000959694)
(0.00061067 0.00146456 0.00139409)
(-0.00156672 0.00889265 -0.0537979)
(-0.0186044 0.0996522 -0.0435823)
(0.0038807 -0.000211713 -0.000457747)
(-0.000274399 0.000169759 -0.00224782)
(-0.00342349 0.0646447 -0.157542)
(-0.00913596 0.280122 -0.149179)
(-7.15813e-05 0.000338961 -0.00123373)
(0.000181251 0.000784287 0.00127696)
(0.00216135 1.3394e-05 -0.00104646)
(-0.00105787 -0.00148679 -0.000588461)
(0.00042442 -4.13253e-05 -1.5729e-06)
(0.000472966 -0.000121151 -8.05094e-07)
(-0.00103036 0.00536564 0.00134075)
(0.00204319 0.0019406 -0.0117124)
(0.000288052 0.000912902 0.000247351)
(0.00334436 -0.000320996 -0.000577969)
(-0.000206283 0.00100663 0.00451489)
(0.000767516 -0.00207141 -0.00140254)
(0.000723834 -0.000326006 -0.000496239)
(0.00218144 -0.000122531 -0.00351572)
(0.000343964 -0.000100158 4.45524e-05)
(-0.00261716 0.00680313 0.00249113)
(-0.000956167 0.0109135 -0.00452967)
(0.00276564 0.000479843 0.000701343)
(-0.00207804 0.0106908 -0.00951646)
(0.00642222 0.0198924 -0.0559271)
(0.000251432 0.00243676 0.00479412)
(0.000859192 0.00083549 0.000772323)
(-0.000103201 0.00202565 -0.00124455)
(0.0110705 0.0103784 -0.0423891)
(0.000370232 0.000681986 0.000810292)
(0.00059089 0.000625467 0.000836116)
(0.000529292 0.00205231 0.00503432)
(-0.000103015 0.00312715 0.00246639)
(0.00532444 0.0234626 -0.0446344)
(-1.18682e-07 0.00272261 0.00225187)
(0.00128456 -0.000193942 -0.00295249)
(-0.00126718 0.00657413 -0.000872321)
(0.000458287 0.00302844 0.00603652)
(0.000584262 -0.000218857 -0.00149048)
(-0.000222569 0.00336079 -0.000467736)
(-0.000464859 0.00428111 -0.00325786)
(-0.000299047 0.00161906 0.00504089)
(-0.000761192 -0.00105298 -0.00104362)
(0.0018549 -0.00010086 -0.00235547)
(-4.5227e-07 8.60294e-06 -0.00237695)
(-0.00131983 0.00068308 -0.0495566)
(0.00173092 -0.000141233 -0.000919516)
(-7.1476e-06 0.000121652 -0.00151603)
(-0.00108402 0.0187868 0.0066505)
(-5.72023e-07 -0.000683734 -0.00130929)
(-0.00216901 0.00672194 -0.000934993)
(-0.000436783 -7.17124e-06 -0.00152905)
(0.00279319 -0.00019392 -0.000407805)
(2.95436e-06 0.00310714 -0.00215645)
(0.00209018 -0.000315945 -0.00487414)
(-0.000333773 -0.00133681 -0.00521175)
(-9.55098e-08 0.000504719 -0.000146877)
(-0.000330141 0.00295238 -0.0025752)
(0.000386226 0.000674444 0.000763871)
(-0.00177387 0.0186547 0.0104313)
(-0.00222278 0.0209924 -0.0559463)
(-0.0128901 0.0488629 -0.0159679)
(0.0018019 -0.000592253 -0.00042029)
(-0.0001813 2.566e-06 -0.0019875)
(0.00444741 0.00154051 0.00568434)
(0.000967692 0.000200908 -0.00332707)
(0.000901132 -0.00010457 1.88756e-05)
(0.000291587 -9.95745e-05 4.58057e-05)
(0.000548465 0.0122014 -0.0579132)
(-0.00287332 0.0063664 0.0138671)
(0.00304248 -2.50954e-05 -0.00222447)
(0.000131057 -0.000147076 -0.000584784)
(1.34917e-05 0.00241606 -0.000595832)
(3.92515e-05 0.000835904 -0.000451299)
(0.000317001 -0.000112103 1.29405e-06)
(8.087e-05 -0.000198999 -0.00120025)
(-0.0127843 0.0137105 -0.00362207)
(-5.48568e-05 0.0458497 -0.00921726)
(-0.0116813 0.027873 -0.0270819)
(-0.00687962 0.00049083 -0.0100691)
(0.00291058 -0.000105135 -0.00048778)
(-0.00249671 0.0107859 -0.0617371)
(-0.000103639 -0.0184501 0.00572521)
(-0.00412542 0.0107771 0.00371892)
(-7.06754e-07 -2.87564e-05 -0.000201954)
(-0.00460113 0.00876827 -0.0589131)
(-0.00398614 0.0110617 -0.0449506)
(0.00785576 -4.92111e-05 0.000426242)
(-0.000226948 -0.00342797 -0.00628851)
(0.000357954 0.000728728 -0.0013834)
(-0.00386498 0.010195 -0.0645546)
(0.000221784 0.00990194 -0.0178446)
(-0.445449 -0.23251 0.15308)
(0.00168601 -0.0162205 -0.0144933)
(-0.0082313 0.0187891 -0.0032568)
(-0.000836145 0.00557975 0.000750087)
(-0.000566596 0.00626233 -0.0469208)
(-0.0015346 0.00287512 -0.0673632)
(0.000308461 0.00503332 -0.0453797)
(0.000435506 0.000431109 0.00461115)
(-0.0108171 0.0666489 -0.0257203)
(6.01606e-05 -3.64554e-05 -2.93569e-05)
(-0.00125629 0.0108471 0.0202913)
(0.000532493 -2.07587e-06 -0.00102992)
(0.00524845 0.000239828 0.000796264)
(0.00614266 -0.000120839 0.00061786)
(0.0347441 0.0546611 -0.0270865)
(0.000204587 -0.000105108 -0.000774369)
(-0.000600225 0.00573474 0.0235047)
(0.000636023 -0.00033619 -0.000995087)
(9.22772e-05 -5.37885e-05 -5.55552e-05)
(-0.00359526 0.00923859 -0.00255848)
(-0.000224828 -0.000884678 -0.00046524)
(-0.000362195 0.00115473 0.0121867)
(0.000193888 -0.0014279 -0.000204717)
(-0.000107243 -2.10511e-06 -0.00106723)
(1.88678e-05 -3.61046e-05 -0.000912934)
(-0.00231988 0.00651953 0.0014779)
(-0.0761216 0.0319757 -0.00858945)
(0.00182841 0.000573314 -0.00403346)
(0.000366864 0.00190506 0.00408874)
(0.000903865 -0.000351895 -0.00110865)
(0.00101451 -0.000335258 -0.00116645)
(-3.16773e-05 8.03195e-05 -5.43758e-05)
(-6.80746e-05 9.96014e-05 -0.000120801)
(0.000240165 -0.000264292 -8.31038e-05)
(-0.00786221 0.0198292 -0.0151325)
(0.00441562 -4.10684e-05 0.00160597)
(0.00212055 -0.00590786 -0.0100432)
(0.00146012 -0.000471854 -0.00138645)
(0.00124595 0.00156881 0.00323333)
(6.57654e-06 -3.86094e-06 -0.000867524)
(0.00105693 0.000665619 0.000275763)
(-0.000383111 0.00969938 0.033892)
(0.001382 -0.00045703 -0.00135319)
(-0.000405653 0.00858745 0.0315899)
(0.000379098 -0.000720917 -0.000293649)
(-8.87089e-05 0.0114731 0.0170444)
(-0.0543404 0.0935677 -0.0289073)
(-0.00478231 0.0109305 0.0233447)
(0.00448547 -4.15864e-05 -1.08159e-05)
(-0.000194458 -0.000190833 -0.000768462)
(-2.17545e-05 0.000370986 -0.00147906)
(-0.000142341 2.18978e-05 -0.0016904)
(-0.000542611 0.00185667 -0.00249275)
(-0.000316888 -4.52455e-06 -0.000530661)
(-0.00746184 0.0138913 -0.00423595)
(6.66006e-05 4.9618e-06 -0.000610202)
(0.000343262 -5.12363e-05 4.34688e-06)
(0.000274052 -4.14879e-06 -0.00118943)
(0.000133327 -3.31422e-05 -0.000555101)
(0.000492452 -0.00240664 -0.000688765)
(-0.000887985 -0.000699534 -0.00193248)
(-0.0023921 -0.000759514 -0.00531487)
(0.00398633 0.000458747 0.000456181)
(-0.000223139 0.000407193 -0.00301581)
(0.000137807 -2.02108e-05 -0.000614778)
(-0.000156599 0.0001389 -0.00178835)
(0.00058019 -2.46962e-06 -6.38114e-06)
(0.00390842 0.000423388 0.000389537)
(7.49605e-07 5.11262e-05 -0.00105076)
(-0.00801458 0.013124 0.000484321)
(0.000898038 -0.000178268 -0.00158842)
(0.000604944 -1.89844e-05 -2.38336e-05)
(5.42843e-05 -9.20113e-05 -0.00142752)
(5.43486e-05 -9.83172e-05 -0.00128909)
(-0.00052493 0.00324253 -0.000386476)
(-0.000108413 0.000196913 -0.00322578)
(-3.52267e-05 8.55108e-05 -0.00126108)
(-9.45645e-05 0.000183235 -0.00165923)
(-0.0160061 0.0400505 -0.014511)
(0.00044147 0.00282588 0.00567718)
(0.0012132 -7.86851e-05 -0.000604114)
(4.30571e-06 0.000354298 -0.00171452)
(-0.00597322 0.000489705 -0.00727276)
(0.000465757 0.0265644 0.00445246)
(-3.32824e-06 -0.000243046 -0.00133385)
(-0.000174598 3.98103e-06 -0.00162446)
(-0.00367737 0.00306101 0.00250562)
(-0.00211154 -0.00247942 -0.00569935)
(-0.00313542 0.00746479 0.00086249)
(-0.00551935 0.0246914 -0.0147777)
(-0.00864541 0.0125224 -0.00295207)
(-5.32835e-05 7.90867e-08 -0.00119378)
(0.00183645 -0.000357488 -0.00194324)
(-0.00060479 0.00255694 -0.00203369)
(0.000383101 0.00144357 0.00135148)
(0.000320776 9.11051e-05 0.000655526)
(-0.00137905 0.00616364 0.014196)
(-0.000728936 0.000338128 -0.00288541)
(-0.0101325 8.54338e-06 -0.0010769)
(-0.00107175 0.00464919 0.0140678)
(-0.0112356 0.00606799 0.0149119)
(4.31245e-05 -2.8575e-05 -3.02372e-07)
(-5.24638e-05 4.96126e-05 -5.07567e-07)
(-2.3987e-05 -0.000244711 -0.000105605)
(0.000919102 -0.00051697 0.000286194)
(-0.00095219 0.0033786 -0.00312448)
(-0.00132452 0.00469503 -0.00153172)
(-9.74337e-05 1.88585e-06 -0.0011829)
(8.04601e-05 2.24166e-06 0.00370478)
(2.84661e-07 -0.000105635 2.36908e-05)
(0.00423462 0.000764784 0.00363322)
(0.00211579 -0.000381605 -0.00196239)
(-0.00109577 0.00524274 0.0159301)
(-0.00246453 0.00191048 0.0149404)
(0.00050645 -0.000156849 -0.00104096)
(0.00114726 -0.000417334 -0.00221276)
(-0.00208899 0.00431741 0.0166124)
(-0.00626415 0.0164608 -0.0174213)
(-3.48901e-06 0.00113832 0.00113506)
(-0.00025303 0.000130949 -0.000603563)
(0.00024929 0.000327765 -0.00176267)
(0.00341722 0.000364625 0.00215333)
(0.000288285 0.00313765 0.0153627)
(-0.000500813 7.93537e-05 -0.00182009)
(0.00128481 -0.000261948 -0.00198913)
(-0.000108016 0.000122252 -0.00162623)
(0.00179963 0.00125008 0.00194619)
(-0.00453194 0.00979558 0.00267692)
(-5.33892e-05 0.000102282 -0.00158943)
(-0.000410027 0.0028752 0.00299491)
(-4.79672e-05 0.000139247 -0.00171726)
(-2.56295e-05 8.53328e-05 -0.00164473)
(0.00137322 -0.000477907 -0.00204092)
(0.00779434 0.000118187 -0.000300291)
(0.00048574 6.08054e-05 0.000703648)
(0.000101939 -7.0485e-05 -0.00013269)
(0.00302117 0.000575341 0.00046008)
(-0.00107743 0.00316078 -0.000273322)
(0.000622629 -0.000268862 -0.00100891)
(-1.38756e-05 -0.000250667 -0.000855684)
(-7.21096e-06 0.00016768 -0.00162506)
(2.59533e-05 -9.13995e-05 -9.45424e-05)
(-8.95272e-07 0.000165924 -0.00165004)
(0.00130844 0.000759781 0.000163737)
(4.32494e-05 -0.000701138 -1.94135e-06)
(0.00151836 -0.000413958 -0.00165549)
(-0.00034641 6.75298e-05 -0.00120038)
(-0.00220111 0.0187157 -0.00841449)
(0.00613986 -3.65455e-05 0.000181079)
(-0.0115876 0.0274354 -0.00982649)
(0.00133977 -0.000334141 -0.00178321)
(0.00349335 8.16082e-07 -0.00272295)
(0.000714743 -0.000257845 -0.00144183)
(-0.00785166 0.00677803 0.00298658)
(0.00170688 -0.000466854 -0.000181473)
(1.69427e-07 -0.000105593 -5.58102e-05)
(0.000104068 -7.17289e-05 -0.0001865)
(-0.000285672 0.00285827 -0.00175253)
(0.000285411 0.00327817 0.00692139)
(-0.00024076 3.73678e-06 -0.00116723)
(3.79514e-06 0.000656004 0.000114396)
(0.000634968 3.87225e-05 -0.00185141)
(-6.83014e-05 0.000238963 -0.000927599)
(-9.42329e-05 0.000117374 -0.00115812)
(0.00044393 0.000456238 0.00233143)
(-0.0140153 0.0242588 -0.00314849)
(-0.000396075 0.000124173 -0.00181269)
(0.00475147 -4.96657e-05 2.22549e-05)
(-0.000161213 -0.00109934 -0.000234627)
(-0.00082072 1.77935e-06 -0.00184545)
(-0.00027276 6.27146e-05 -0.00128503)
(0.00084182 -0.000177159 -0.00164057)
(-0.000230169 6.88889e-06 -0.00131978)
(0.000228014 -1.06026e-06 3.15308e-05)
(-0.0011442 -0.00183325 -0.00120334)
(-0.000116156 2.13944e-06 -0.00135266)
(-3.39628e-05 0.000715432 -0.00238212)
(-0.00017848 0.000406794 -0.00215087)
(-0.000106998 0.000129965 -0.0013787)
(-0.000354571 -0.000546148 -8.42018e-05)
(-0.000427853 4.08158e-05 -0.00135165)
(-7.73125e-05 0.000153142 -0.000921185)
(-0.000441821 9.7914e-05 -0.0013625)
(-0.0150568 0.0103019 -0.0156301)
(-0.00281338 0.0047337 0.00307774)
(0.00229802 0.000410151 0.000155509)
(0.000635185 0.000244866 0.00136958)
(0.00105525 -0.000559937 -0.000470665)
(0.000347543 -0.000341842 -2.53104e-07)
(-0.0383866 0.0240441 0.027144)
(0.000377544 0.000816763 0.000893866)
(-0.00250872 0.00907269 0.00986551)
(-0.00178801 0.00730694 0.00584961)
(7.43792e-05 -0.000212343 -0.000351131)
(0.00418951 -6.97751e-05 -0.000294657)
(0.00116318 -7.40927e-05 -0.00187175)
(0.00100956 -9.54342e-05 -0.00162958)
(0.00325834 -0.000298815 -0.000552306)
(-0.00299438 0.00881712 0.00998778)
(1.73195e-05 -0.000181933 -0.000332592)
(0.00108438 0.000147064 0.00149528)
(-0.000980065 -0.00381205 -0.00125782)
(-0.00261397 0.00823822 0.00980973)
(0.00270919 0.000901299 0.00206328)
(0.000311573 -0.000372219 3.39767e-05)
(0.000135911 0.000554479 0.000511936)
(0.000424342 0.000887337 0.000938434)
(4.52469e-05 -0.000284992 -0.000287678)
(-0.000485456 0.00278292 0.00360039)
(-0.00368083 0.00471407 -0.00248963)
(0.000592355 0.000757359 -6.53936e-05)
(0.000504615 0.00160527 0.00942613)
(0.000822467 0.000883425 -0.000398359)
(-8.14025e-05 6.37601e-05 -0.00197895)
(0.00501898 -7.57027e-05 -0.0001361)
(-0.000530302 0.000983648 0.011539)
(0.00032834 1.91601e-06 -0.000760602)
(0.000997018 0.00109958 -0.000525145)
(-0.000877419 6.45229e-05 0.0113775)
(0.000479197 0.000779077 0.0107057)
(0.00496879 4.37216e-05 2.47982e-05)
(4.96442e-05 -0.00085827 -0.00395228)
(-0.00222124 0.0460665 -0.00419579)
(0.000434066 0.000128017 -0.000885227)
(0.000532895 4.02707e-05 5.09654e-07)
(0.00546576 -9.10575e-05 -2.19816e-05)
(-0.0277953 -0.018247 0.0041483)
(0.0025911 -0.00014838 -0.00036853)
(-6.7376e-05 -0.000267821 -1.57112e-06)
(0.0064615 -2.79199e-05 -0.00012163)
(-0.000903176 0.00264174 -0.00296542)
(-0.0027051 0.0439642 0.00112474)
(-0.0149804 0.0332448 0.0077129)
(-0.0010288 0.00489382 0.0176261)
(0.00168321 -2.54437e-05 0.0124531)
(-0.000493878 -5.73089e-05 0.010212)
(-5.20632e-05 0.00186533 0.0102503)
(-0.000739447 0.000662824 0.0113907)
(0.00329046 -0.000280387 -0.000355615)
(0.00201188 0.00046628 0.00308496)
(0.0004765 0.00077282 0.000909973)
(8.72299e-05 0.00144022 0.000622408)
(0.00617333 8.68199e-06 -2.59629e-05)
(0.000246342 0.000434248 0.0104692)
(0.00600822 2.87129e-05 -0.000511753)
(-0.000135191 0.000397166 -0.00231257)
(0.00276458 0.00117723 0.0119197)
(-0.00624923 0.00333998 0.0123124)
(-0.0013827 0.00558514 0.0127046)
(0.000704002 -0.00018496 -0.00144463)
(2.10533e-05 0.00648572 -0.0052813)
(0.00208392 0.0404066 0.0131769)
(-0.0135508 0.00561548 0.0316459)
(-0.000815505 0.00336448 0.0127664)
(0.00526645 0.000156665 -0.000220232)
(-0.000168664 0.000136667 -0.00184723)
(-9.14138e-05 0.00215758 0.0156853)
(-0.0253588 -0.0252152 0.0573104)
(-0.000264656 0.0035563 -0.00051234)
(-0.00130184 0.00449152 0.0142343)
(0.00733628 0.000496169 0.00064235)
(0.00124704 -0.000179289 -0.00176865)
(0.00136294 0.110159 0.0286776)
(0.00270083 0.000603505 0.00126892)
(-0.000778722 0.00511835 0.014444)
(-0.00105702 2.40112e-05 -0.046269)
(6.05884e-05 -0.000126119 -0.000294832)
(-0.00159175 0.00641042 0.0140887)
(0.000584856 -3.58493e-05 -0.0012859)
(0.000321681 -6.74713e-05 -0.00110824)
(0.00479677 0.00025456 -0.0016568)
(0.00507005 0.00047356 -3.83702e-05)
(0.00111592 -6.6099e-05 -0.00169044)
(0.000681708 -0.000111391 -0.000899382)
(0.000801132 -0.000438693 -0.00107433)
(0.00605925 -0.000481567 -0.00145183)
(1.82333e-06 -5.02437e-05 -0.000249215)
(-0.00197084 0.00531933 0.00782788)
(0.00586371 -0.000385069 -0.00124277)
(0.000600708 -8.34387e-05 -0.000750894)
(-5.62665e-05 -0.000295019 -0.00118883)
(-0.000263609 4.68586e-05 -0.00304672)
(0.0058039 -4.4452e-05 -0.00117142)
(0.00118096 0.000712213 3.87253e-05)
(-6.55795e-07 0.00305817 -0.00258124)
(-0.00342775 0.00637161 0.0031526)
(0.00134026 -5.96019e-05 -0.000146448)
(0.000156724 0.000991592 0.00138584)
(0.00413655 1.39907e-05 0.00111124)
(2.55499e-05 -0.000396597 -1.47369e-06)
(-0.000300869 2.89055e-06 -0.00188074)
(7.10178e-06 -2.02335e-06 -0.000522893)
(-0.000160174 -8.70163e-06 -0.00118821)
(-0.000532101 0.000807857 -0.00264332)
(-0.000205181 0.00185414 0.00323702)
(-0.0021892 0.00833265 2.2798e-05)
(-0.000629959 0.00091661 -0.00319547)
(0.00570481 -3.02812e-05 -0.00104377)
(-0.000950468 0.00484178 0.00170751)
(-0.0160694 0.00835815 -0.00391322)
(6.11379e-05 0.000502688 -0.00141635)
(-1.19243e-05 -0.000339099 -0.00119415)
(6.39188e-07 0.000341728 -0.000178266)
(-0.000291329 0.00090842 -0.00214597)
(0.000300917 0.000744426 0.000831346)
(-0.000421338 9.06575e-06 -0.00192308)
(0.00942229 0.00030524 0.0141981)
(0.0011694 -7.93003e-05 -0.00177145)
(-0.000767483 7.0538e-05 -0.0018794)
(0.000702412 -0.000253091 -0.00137813)
(0.00297269 0.000867109 0.0020778)
(-0.269078 -0.0271404 0.0816171)
(-0.000539858 -3.34578e-05 0.00917923)
(0.00106989 -8.34535e-05 -0.00136987)
(0.00436916 -0.000103675 8.92e-05)
(7.64878e-05 -5.11272e-05 -0.0020301)
(0.000600158 0.00121325 0.00122973)
(0.0134325 -0.063555 0.0877608)
(0.000768088 -0.00011217 -0.00160702)
(0.00046076 -0.00015737 -0.0014964)
(5.31464e-05 0.00093 0.0072324)
(0.000280838 -6.03813e-05 -0.00172663)
(-0.000613625 6.77759e-05 -0.00106546)
(0.00443728 1.70684e-05 -3.13033e-05)
(-7.28223e-05 0.000336975 -0.00202751)
(0.00121254 -3.71122e-05 -0.00137685)
(0.000125634 0.0014392 0.00113643)
(0.00432817 -2.40035e-05 -0.000180715)
(-5.62281e-05 9.95324e-05 -0.00134281)
(0.00222266 -0.000241103 -0.00219051)
(0.00310173 0.00127104 0.00258941)
(0.000456902 0.00137467 0.00111623)
(-0.000506064 0.0080272 0.00486892)
(0.000104312 -0.00286523 -0.0157528)
(0.000219075 0.000475598 8.68631e-05)
(0.00616158 -0.000215351 -0.000436755)
(-2.32235e-06 5.4796e-05 -0.000478923)
(0.00440074 0.000140754 -0.000135969)
(0.000802416 0.000477738 0.000728202)
(0.000229093 -0.000124459 -3.6623e-07)
(0.000831313 -0.000115491 -0.00145806)
(-2.42768e-05 0.000220168 -0.00134513)
(0.000636587 3.02935e-05 -0.0013694)
(-0.00106762 0.0071735 0.0120669)
(-4.95565e-06 1.97532e-05 -0.000975092)
(-0.00460094 0.0112498 -0.0123338)
(-0.0112365 0.0272309 -0.00699556)
(-3.56097e-05 0.000169736 -0.00150466)
(0.000517574 4.48401e-05 -0.00194921)
(0.00504749 0.000116582 -1.40292e-05)
(-0.000500512 0.00552001 0.0101309)
(0.000559992 0.00151412 0.00270297)
(-0.000291921 -2.89292e-06 -0.00095394)
(0.00499477 -0.000165597 0.000219874)
(0.00058734 0.000775079 7.57257e-05)
(1.52462e-05 0.000126668 -0.000997456)
(-0.00013804 -3.54846e-05 -0.00106028)
(-9.74124e-05 -4.74793e-06 -0.00115461)
(0.00457044 0.000354257 0.00105803)
(0.000334377 0.00053015 0.00587972)
(0.000846278 4.19547e-05 -0.00587471)
(0.00121381 0.000381533 0.00630685)
(0.00479914 -7.85369e-05 -0.000433613)
(0.000362786 0.000753871 0.00708168)
(0.00096881 -9.9923e-05 -0.00134936)
(-0.00246752 0.000210566 0.0123637)
(0.00778545 0.000426617 0.00177966)
(3.84424e-05 8.01612e-06 -0.00123485)
(-0.000217378 -0.000339223 -0.00202848)
(-0.0187442 0.00516525 -0.00445502)
(0.0027689 -2.82221e-06 -0.0013583)
(-0.0248436 0.00984535 -0.00603615)
(8.25793e-05 0.00171182 0.00108005)
(-8.04605e-05 -0.000200101 -0.000978506)
(0.000757328 -0.000114087 -0.001449)
(-0.00153602 -0.000902652 -0.00672973)
(-0.00617243 0.0438262 0.0149649)
(-8.26667e-05 0.000380694 -0.000599788)
(-0.000203039 0.000126999 -8.9843e-05)
(0.00628463 0.000266531 0.00160199)
(-8.40555e-05 0.000215096 -0.00185476)
(0.000686438 -0.000223667 -0.00127309)
(-0.000149341 0.000491217 -0.0012742)
(0.000108913 0.000148659 -0.00283132)
(0.0067939 0.000379859 0.00230646)
(8.45332e-05 -8.4135e-05 -0.000211864)
(-8.46989e-05 0.000396479 -0.00129935)
(-0.000289758 0.000174837 -0.00155184)
(0.0059246 5.98255e-05 -0.00109214)
(0.00271323 -0.000165872 -0.000424417)
(0.000849606 6.12732e-05 0.000145396)
(0.00273886 -0.000258279 -0.00059706)
(-0.00684114 0.000970817 0.0133022)
(0.000580454 0.000130084 -0.00191277)
(-0.0224323 0.0138356 0.0155287)
(0.00783273 0.000196241 0.00117986)
(0.00280706 0.000254272 0.00216882)
(0.00284958 -0.000124629 -0.000369235)
(0.00510874 9.00607e-05 0.000115135)
(0.00673279 0.000264639 0.00142693)
(0.00671813 0.000224942 0.00209039)
(0.0063997 6.29446e-05 -0.000360518)
(-4.06653e-06 -0.000890585 -0.000724582)
(4.11314e-05 0.000141582 -0.000244562)
(0.00461273 -3.70978e-05 -5.29327e-05)
(0.000621963 4.10834e-06 -0.00135655)
(0.00895905 -0.000485625 -0.00105557)
(-6.58393e-05 0.000255887 -0.000142305)
(0.00444953 -0.000228819 -0.000141463)
(-3.30546e-06 0.0003058 -0.000198674)
(2.11141e-06 0.000152184 -0.000194043)
(0.000428999 -0.000201263 -0.00023166)
(0.00440935 0.000605883 0.00113955)
(-0.000207317 0.0191024 0.0264417)
(1.42743e-06 -0.000283443 -0.000163431)
(0.00118844 -3.85695e-06 -0.00189722)
(0.000360387 -7.42732e-05 -2.01383e-06)
(0.00529783 0.000217097 0.000835287)
(-0.000243557 -0.00135146 -0.000865466)
(-9.87285e-05 -0.000850525 -5.5972e-05)
(0.00517828 0.000185272 0.000278928)
(0.00108555 -0.00010487 -0.000900373)
(0.00228864 -2.80148e-05 -0.000874781)
(-1.12679e-05 8.50617e-05 -0.000215213)
(-4.57681e-05 0.000198294 -0.000325934)
(-0.00413108 -0.0067748 -0.00465383)
(0.00025132 -1.18048e-05 -0.00284786)
(0.00515178 4.10749e-05 0.000174497)
(0.000562281 -0.000281372 -0.000110159)
(-2.40635e-05 -1.63726e-05 -0.000991606)
(0.000865178 -9.28488e-05 -0.00184811)
(0.00340828 -0.000195886 -0.000511624)
(0.00492684 -1.3552e-05 0.000132317)
(0.00607114 0.000230534 0.00140395)
(8.57464e-06 -7.96843e-05 -0.000886618)
(0.00584412 0.000160558 0.000922814)
(0.00479541 -0.000937489 -0.00019783)
(0.00465338 -3.55296e-05 0.000202901)
(0.00488125 0.0002408 0.000350736)
(-0.00059878 0.000306944 -0.00188627)
(-0.0437597 0.0243343 -0.0142431)
(-0.000875267 0.00495638 0.00743598)
(0.00289766 -0.000102718 -5.02098e-05)
(0.00179024 0.000169327 4.42968e-05)
(-2.50149e-06 -6.7048e-05 -0.0013927)
(-0.00199307 0.000761195 -0.00146332)
(0.00408584 -1.85072e-05 0.000163933)
(1.9628e-05 -0.000378035 -0.0014162)
(0.00390338 -1.79494e-05 0.000246008)
(-0.00128702 0.00105636 -0.00165854)
(0.0021101 9.16192e-06 -0.00138575)
(0.0102653 0.000959371 -0.00565567)
(0.000720183 -0.000123121 1.66319e-05)
(0.000746378 -5.75683e-05 -1.25799e-05)
(0.00528044 0.000160347 6.54258e-06)
(-1.22158e-05 1.01379e-05 -0.00208647)
(0.00507621 -0.000149656 -0.000289398)
(0.000262761 -9.91741e-05 -0.00105338)
(-0.0193331 0.00994627 0.0115557)
(0.000747756 -0.000126479 1.31386e-05)
(0.00150231 9.15055e-06 -0.001559)
(-0.000100164 -0.000363278 -0.000469004)
(-0.000336299 0.000446133 -0.000615253)
(-0.000220606 0.00189817 -0.000231047)
(-0.000487365 0.000404447 -0.00146572)
(6.77853e-05 0.00275934 0.00201479)
(0.00241883 -2.49937e-05 7.08863e-06)
(0.00570191 2.08404e-05 -5.55045e-05)
(-0.000298333 -4.35251e-05 -0.000428479)
(0.00253193 -6.97142e-05 -0.000206669)
(0.000583171 -2.24524e-05 -0.00132829)
(0.00823573 0.000612456 0.00138431)
(0.00189628 -0.000186164 -0.00124232)
(0.00806086 4.22624e-05 0.000158631)
(0.0013631 0.000242975 0.000714095)
(0.00699169 0.000297336 0.000716753)
(0.00170945 4.76328e-06 -0.00155955)
(0.00283041 4.45089e-05 -0.000209025)
(9.74616e-07 0.000138608 -0.0011123)
(-6.02766e-06 -0.000969095 -0.00393402)
(0.00290018 -0.000160894 -0.00042373)
(0.00800039 0.000354533 0.000911114)
(0.00766053 1.73935e-05 3.58261e-05)
(0.00735689 -2.11404e-05 0.000439423)
(0.00189439 0.000263891 0.00230127)
(-0.000315261 -0.000307319 -0.000730963)
(0.00266655 -0.000146006 -0.00055888)
(0.000474875 -0.000104355 -4.4804e-05)
(-0.000539498 0.0037428 0.00985824)
(0.000914079 -2.46894e-05 -0.00131847)
(0.000443516 0.000207895 0.00348894)
(0.00759193 -0.000237804 -0.00032176)
(-0.000270656 0.00027012 -0.000807179)
(4.88015e-05 -0.000280486 -0.00138331)
(0.00492861 0.000724059 0.00335037)
(0.00143961 -0.000199288 -0.00132792)
(0.00672485 0.000866235 0.00241253)
(0.00615706 0.000745269 0.00200099)
(0.00552914 0.000618659 0.00268569)
(0.0058165 7.56616e-05 4.06989e-05)
(0.000519345 0.00126607 0.00117408)
(0.000400542 -0.000122158 1.97771e-05)
(0.00050953 -8.31644e-05 -3.37894e-05)
(0.00537702 0.000919562 0.00371816)
(0.000418514 -5.0876e-05 2.1729e-05)
(0.00152153 -4.4197e-05 -0.00181749)
(0.00052457 -7.60727e-05 -5.23184e-05)
(0.00844713 -0.00014709 6.86702e-06)
(0.00565104 0.000131097 -0.000162575)
(0.000345468 -2.42372e-05 -0.000881631)
(0.0106129 0.00131782 0.000628981)
(0.000445673 -0.000154593 4.20436e-05)
(0.00635406 0.00035172 0.00439053)
(0.00238281 0.00109348 0.00487689)
(0.00552845 -1.42482e-05 -2.90361e-05)
(0.000220373 -0.000277589 -0.00186132)
(0.000812984 -8.1355e-05 -0.00123194)
(6.28346e-05 -0.000694283 -9.27037e-05)
(0.00196219 -0.00391845 -0.00457567)
(-0.00181971 0.00915384 0.0106778)
(0.00270178 0.00123811 0.00459898)
(0.00292178 -0.000517082 -0.00194283)
(-0.00319065 0.00899652 -0.0011134)
(-0.000115399 0.000806712 -0.00181092)
(4.50544e-05 0.000145904 -0.00161489)
(0.00180917 0.00073807 0.000574369)
(0.00297639 0.00127736 0.00433622)
(-0.000268559 8.18158e-05 -0.000967054)
(0.000217002 0.000212803 -0.00191685)
(0.00292312 0.000476525 0.000894884)