/*--------------------------------*- C++ -*----------------------------------*\
| =========                 |                                                 |
| \\      /  F ield         | OpenFOAM: The Open Source CFD Toolbox           |
|  \\    /   O peration     | Version:  v2012                                 |
|   \\  /    A nd           | Website:  www.openfoam.com                      |
|    \\/     M anipulation  |                                                 |
\*---------------------------------------------------------------------------*/
FoamFile
{
    version     2.0;
    format      ascii;
    class       volScalarField;
    location    "0.5";
    object      alphat;
}
// * * * * * * * * * * * * * * * * * * * * * * * * * * * * * * * * * * * * * //

dimensions      [1 -1 -1 0 0 0 0];


internalField   nonuniform List<scalar> 
108993
(
0.000117192
0.000111455
8.78852e-05
0.000121477
0.000121729
6.95564e-05
0.000106696
9.82085e-05
0.000120326
0.000112569
0.00012751
0.000126526
0.000101355
0.00010247
0.000108474
9.18291e-05
9.61873e-05
0.000109494
0.000103171
0.000109742
8.97188e-05
0.000115091
9.85892e-05
0.00012066
0.000117764
0.000109752
0.000104459
0.000116816
0.000129435
8.0267e-05
0.000129744
0.000125209
0.000105938
0.000123242
0.000103308
0.000121747
0.000105757
0.000120496
9.94302e-05
0.000108311
0.000135944
0.000129168
0.000111628
0.000119825
0.000109266
8.18938e-05
0.00010594
0.000107077
0.000139365
0.000119166
0.000121536
0.000134055
0.000113795
0.000117133
0.000124489
0.000128261
0.000109948
0.000114021
9.71816e-05
0.000130286
0.000116294
0.000118302
0.000115417
0.000103609
0.000111694
0.000129981
9.5694e-05
0.000125442
0.000134992
0.000119747
0.00011334
0.000109135
0.000120398
0.000116766
0.000105706
0.000127971
9.84659e-05
0.000138096
0.000115291
0.000114922
0.000111021
0.000105427
0.000102421
0.000100488
0.000129625
0.000109485
0.00012996
0.000106304
0.000111746
0.000125962
0.000113273
9.85925e-05
0.000125671
9.03972e-05
0.00012153
0.000119769
9.8066e-05
8.68892e-05
9.60273e-05
0.000100994
0.000123725
0.000138037
0.00013489
0.00012957
9.29843e-05
0.00012404
0.000129558
0.000131693
0.000126956
0.000130299
0.000102198
0.000112305
0.000110857
0.000117982
0.000120066
0.000102924
0.000104678
9.82139e-05
0.000134721
0.000116512
0.000114551
0.00010865
0.000109632
8.09698e-05
0.00010742
0.000116191
0.00012024
0.00010597
9.88811e-05
0.000124061
0.00010701
0.000125814
0.000131921
9.80587e-05
0.000115742
9.93262e-05
0.000110423
0.00010475
0.00010323
0.000111045
0.000102835
9.43536e-05
0.000111041
0.000112374
0.000123194
0.000118923
9.8151e-05
9.67337e-05
0.000111592
0.000113334
0.000114078
9.67893e-05
9.62921e-05
0.000123722
0.000118516
0.000113229
0.000137344
0.000121478
0.000118704
0.000116158
0.000125576
0.000108105
0.000132644
0.000109411
0.000111806
0.000123405
0.000112388
9.80807e-05
9.68024e-05
0.000133348
0.000123447
0.000123119
0.000123304
0.000104039
0.000112875
0.000110153
0.000104727
0.000104709
0.000125424
0.000102046
0.00010546
9.89017e-05
0.000108394
4.10131e-05
0.000135326
0.000119278
0.00010996
0.000118792
0.000119031
4.54806e-05
0.000118877
0.000117676
0.000104579
0.000117301
0.000126028
0.000112744
0.000131689
0.000120505
0.00012855
5.00846e-05
0.000125227
0.000124683
8.93633e-05
0.000101008
0.000122227
8.83849e-05
0.000106849
0.00011978
0.000112983
9.50633e-05
0.000101218
0.000109334
9.8648e-05
0.000108028
9.47347e-05
8.4731e-05
0.000105248
0.000117432
0.000111193
0.000140545
0.000116298
0.000102734
0.000123908
0.000111772
0.000105372
9.26219e-05
0.000105101
0.000129909
0.000123476
9.78152e-05
6.22243e-05
0.000118885
9.91674e-05
9.82348e-05
0.000109525
9.18714e-05
0.000122987
0.000108093
0.000110217
0.000108177
8.12985e-05
0.000124848
7.96321e-05
0.000116003
0.000128417
0.000110321
0.000113665
0.000113143
0.000117981
0.000128743
0.000133897
0.000116282
0.000112804
0.000124206
0.000119216
0.000115105
0.000117099
0.000113946
0.000132327
7.91144e-05
0.000116642
0.000100283
0.000129768
9.77637e-05
8.81814e-05
0.000116102
0.00012892
0.000134585
7.87519e-05
0.000114903
8.58287e-05
9.29075e-05
0.000119115
0.000105088
0.000109647
0.00011001
0.000124381
0.000133671
0.000128057
0.000115632
0.000124726
9.31508e-05
8.13073e-05
0.000106589
0.000122746
0.000117778
9.24463e-05
0.000123886
0.000132401
7.08882e-05
0.00011365
9.9335e-05
0.000127684
0.000122689
0.000117104
9.85414e-05
0.000132154
0.000114689
9.86255e-05
7.12218e-05
0.000101188
9.62608e-05
0.000125241
9.37141e-05
0.000120207
9.6803e-05
8.7281e-05
0.000102281
9.09903e-05
0.000127772
0.000126009
0.000125547
0.000101859
0.000110893
0.000127642
0.000103287
8.47535e-05
0.000105283
0.000109843
0.000135673
0.000111042
8.66537e-05
8.65375e-05
8.25945e-05
9.58092e-05
0.000109272
0.000109002
0.000131149
0.000108617
0.000131243
0.000138763
0.000135701
7.69359e-05
0.000111072
0.00011138
0.000108907
0.000117908
0.00012141
0.000120256
0.000106725
0.00011286
0.000110591
0.000106791
0.000123912
0.000107408
0.000111132
0.000105708
0.000105004
0.000103322
9.93623e-05
0.000121277
8.37808e-05
8.365e-05
0.000110101
0.000108639
0.000115486
0.000105698
7.80689e-05
0.000108538
7.06541e-05
0.000139227
0.000105931
9.18196e-05
0.000111056
0.000118229
0.000125716
0.000124207
0.000105925
0.000112155
0.000122255
9.73754e-05
0.000123997
0.000101594
0.000115089
0.000141553
0.00012076
0.000128202
0.000153704
9.53537e-05
0.000123458
8.91186e-05
9.30334e-05
0.000129145
9.87858e-05
0.000111537
8.05481e-05
0.000107244
9.64361e-05
0.000111095
0.000128784
9.26092e-05
8.46548e-05
9.1387e-05
0.000101824
9.7839e-05
0.000157531
0.000105253
0.000117228
0.000110271
0.000114232
0.000154847
0.000107666
9.64815e-05
0.000117984
0.00012104
8.5709e-05
0.000106077
7.62703e-05
0.000108432
9.63463e-05
0.00010829
0.000104593
9.55757e-05
0.000103645
0.000118978
0.000130087
0.000118197
0.000106773
7.10334e-05
0.000108905
0.000114271
0.000113324
8.70411e-05
9.11513e-05
0.000124976
7.62606e-05
0.000122776
8.53793e-05
9.73928e-05
7.99561e-05
9.55354e-05
0.000113685
0.000107129
0.000108123
0.000108775
0.000117804
0.000105564
0.000121547
0.000127698
0.000105538
0.000110932
0.000109024
0.000133009
8.08773e-05
0.000121756
0.000128067
0.000103739
0.00012731
0.000110868
8.71182e-05
0.000113857
0.00011648
0.000126608
0.00014734
0.000138535
0.000114881
0.000114991
0.000110745
0.000137187
0.000103294
7.25654e-05
0.000113669
7.64156e-05
0.000118063
0.000114349
9.03144e-05
9.7153e-05
9.23509e-05
8.51708e-05
0.000102968
7.71239e-05
0.00012273
0.000120456
0.000110605
0.000130217
0.000102857
9.99075e-05
0.000126314
0.000103426
0.000123665
0.000105102
0.000134938
0.000129692
0.000123629
8.10059e-05
0.000102603
0.000102465
9.31694e-05
0.000107801
0.00012851
0.000115866
0.00012676
9.61693e-05
9.77738e-05
0.000111853
8.24661e-05
9.73007e-05
0.000124251
9.11173e-05
0.00011225
9.43193e-05
0.000116447
9.29306e-05
0.000116982
0.000123346
0.000122925
0.000112087
0.000102843
0.000102886
0.000114413
0.000122299
0.000107262
0.000124865
0.00013116
0.00011576
0.000108588
9.99092e-05
0.000114799
0.000132726
0.000137823
8.56621e-05
8.40213e-05
0.000117929
0.000122022
0.000132189
0.000108953
0.000110191
0.000121821
0.000111182
0.000130526
9.36553e-05
0.00010811
0.000101422
0.000106645
0.000109033
0.000130948
0.000107399
0.000121885
0.000126854
0.000106744
9.35737e-05
0.000116006
0.000113035
0.000131168
0.0001306
0.000111521
9.42533e-05
0.000103179
0.00012857
9.36836e-05
0.000102115
9.79614e-05
9.71605e-05
0.000138167
0.00012805
9.39312e-05
0.000125651
0.000132799
0.000107192
9.8947e-05
0.000119182
0.000118461
9.62167e-05
0.000123806
8.22397e-05
0.000105172
0.000122237
9.89409e-05
0.000151226
0.000127358
0.000122219
9.03271e-05
8.75085e-05
8.65031e-05
0.000115666
0.000116297
0.000134918
8.37569e-05
9.32622e-05
0.000116786
0.000130954
0.000107575
0.000132482
0.000141229
0.000122657
0.000100195
0.000102317
8.67681e-05
0.000129383
8.61827e-05
0.000137042
8.95033e-05
0.000109698
0.000114699
9.93753e-05
0.000105354
0.000141441
9.15e-05
0.000131519
0.000110221
0.000121105
0.000130743
0.000125418
0.000103766
0.000100867
8.35125e-05
0.000121
8.86705e-05
0.000114144
0.000121459
0.000107192
0.000120921
0.000134368
0.000112354
0.000141248
0.000108682
0.00012264
8.86702e-05
0.000100337
0.000103459
0.000135477
0.000115266
0.000122562
0.000123959
0.000129487
0.00012893
0.00013762
0.000120042
0.00010273
0.000119778
0.000123611
0.000114621
0.000121683
9.88284e-05
0.000111075
0.000100039
9.04815e-05
0.000131832
0.000108529
0.000124631
0.00011023
0.000122305
0.000107984
0.000103509
9.922e-05
0.00010494
0.000115851
9.76463e-05
0.000105679
0.000111388
0.000118652
9.92407e-05
0.000109608
7.47896e-05
0.000129053
0.000105433
8.7715e-05
6.59349e-05
0.000111542
7.08968e-05
5.74611e-05
0.000117264
9.04e-05
0.000113102
0.000101722
0.000117296
9.38918e-05
0.000125591
9.52546e-05
0.000104811
0.000135904
0.00013829
0.000131413
8.43593e-05
7.77625e-05
0.000135655
0.000103457
7.78428e-05
0.000117711
0.000128676
0.000108272
0.000125931
0.000112682
0.000119877
7.57769e-05
0.000155588
0.000135569
7.51934e-05
7.79711e-05
0.000112351
0.000104083
0.000114623
0.000122612
9.56576e-05
0.000116784
9.57685e-05
9.24175e-05
9.94376e-05
9.37729e-05
0.000113053
0.000118086
0.00010519
7.1146e-05
7.57549e-05
0.000143174
7.89106e-05
0.000120982
0.000102297
0.000121619
0.000103814
0.000119141
0.000122325
0.000117471
0.000127679
0.000109646
9.2531e-05
0.00010085
0.000116406
8.92713e-05
0.00012594
0.000127375
0.000121323
0.000145469
0.000101564
0.00010345
0.000121381
0.000126036
9.41326e-05
0.000100102
0.000122833
0.000112096
0.000116828
9.43697e-05
0.000104742
0.000123742
9.55263e-05
0.000134926
9.73382e-05
0.000121511
0.000138727
0.000103353
8.91682e-05
0.000120679
0.000108135
0.000126215
0.00012938
0.00013392
0.000147847
0.000122874
0.000158331
0.000125483
8.75451e-05
9.98025e-05
0.000140797
9.01962e-05
0.000102935
9.4006e-05
6.55208e-05
0.000139592
0.000105392
0.00011193
0.000112032
0.000142672
0.000113127
7.98263e-05
0.000125738
0.000124348
9.82464e-05
0.000121159
0.000121429
0.000107098
0.00011547
0.000120768
0.000125838
0.000109235
0.000139277
0.000113716
0.000106246
8.497e-05
0.00010727
7.52932e-05
9.04363e-05
0.000121719
0.000112192
0.000113784
0.000102117
0.000116069
9.37337e-05
0.000120884
7.95565e-05
0.000116542
0.000100022
0.00011283
0.000113212
0.000130031
0.000143746
0.000104373
0.000128097
8.55846e-05
0.000126896
0.000103496
0.000107319
0.000126911
0.000109775
0.000121858
0.000126532
0.000121679
0.000111692
0.000100358
0.000104253
0.000100916
0.000118026
0.000118639
8.96975e-05
9.66392e-05
0.000108092
9.21312e-05
0.000115659
0.000110087
9.41176e-05
0.000101577
9.26774e-05
0.000114528
0.000122124
0.000112799
0.000102815
9.03297e-05
9.84017e-05
9.64223e-05
0.000139599
0.000113958
0.000122106
0.000117336
0.000144014
0.000103612
9.06195e-05
0.000109435
8.83826e-05
0.000137498
0.000101142
9.53359e-05
0.000131559
0.000107969
0.000137937
0.000117085
0.000117359
0.000114356
0.000126331
6.42237e-05
0.000117991
7.03063e-05
0.000117622
6.63948e-05
0.000123163
0.000118112
7.27332e-05
0.000109284
0.000117052
0.000145571
7.41219e-05
8.25087e-05
0.000108067
0.000114545
7.86259e-05
0.000109063
0.000125562
0.000114582
8.56738e-05
0.00012748
0.000102636
9.94984e-05
0.00010822
0.000100453
7.66531e-05
0.000110655
0.000103324
0.000125575
8.47707e-05
0.000108255
8.92918e-05
6.58637e-05
8.02278e-05
9.9281e-05
0.000116856
0.000105009
7.65492e-05
0.000110945
7.89477e-05
0.000107112
0.000108863
0.000113747
0.000107216
9.01607e-05
0.000105884
0.000108795
9.75415e-05
0.000109475
0.000119571
9.93743e-05
0.000143705
0.000113387
0.000108703
0.000107093
7.81358e-05
0.000128212
0.000117054
8.99287e-05
0.000101333
9.13567e-05
0.000128398
0.000115344
0.000119081
0.00015051
0.00013191
9.80961e-05
9.72082e-05
9.58334e-05
0.000120004
0.000134984
0.000104774
9.39994e-05
0.000127127
0.000108296
0.000130603
0.000121657
0.000130148
9.36814e-05
0.000142377
0.00011449
7.71274e-05
9.85796e-05
9.36577e-05
9.80495e-05
0.000125138
0.000148118
0.00010198
0.000108254
0.000100073
0.000123698
7.50501e-05
9.51094e-05
0.000106415
9.71632e-05
0.000107429
0.000116862
9.60275e-05
8.65801e-05
9.78889e-05
0.000130631
0.000111859
0.000118548
0.000122694
9.77579e-05
0.000119343
0.000108215
0.000112937
0.000105902
0.000109966
8.34065e-05
0.000121515
0.000102979
0.000103896
0.000101264
0.00013092
8.26562e-05
0.000103647
0.000125895
0.000118869
0.000111585
0.000109616
8.61756e-05
0.000114716
8.82696e-05
0.000113607
8.6919e-05
9.2586e-05
0.000110648
0.000122673
0.000119229
9.15422e-05
0.000104411
0.000102828
0.000106327
9.17651e-05
0.000108863
0.000119788
0.000119213
0.000106987
0.00012939
0.000111498
9.59389e-05
0.00012674
0.000116729
9.51894e-05
0.00010375
9.03959e-05
0.000106464
8.85195e-05
0.000121089
9.16709e-05
0.000107562
9.73373e-05
0.00010974
0.000101273
0.000116885
0.000151525
0.000111588
0.000102594
9.34146e-05
0.000104179
0.000114203
0.00011419
0.000126852
6.68387e-05
0.000118214
0.000118679
0.000104757
0.000102715
0.000116964
8.56131e-05
8.99728e-05
0.000107867
0.000113631
0.000113211
0.00012717
0.00012975
0.000114218
0.000111841
0.000136764
0.000107849
0.000131668
0.000126907
0.000124323
0.000125803
0.000135255
0.000163135
0.000123099
0.000115289
0.000129622
0.000108974
9.7735e-05
0.000117509
0.000118644
0.000129637
0.000116085
9.86688e-05
9.60006e-05
0.000105023
0.000107775
0.000106245
0.000113362
0.000108529
0.000123184
0.000114593
8.10345e-05
0.000117413
0.000113089
0.000104384
8.47423e-05
0.000130447
9.1597e-05
0.000108332
0.00011374
0.000135514
0.000142713
0.000107289
0.000106479
9.63861e-05
9.99276e-05
0.000100473
0.000136845
9.71215e-05
0.000154932
0.000130877
0.00013867
9.06276e-05
7.73401e-05
0.000110175
9.44327e-05
0.000107375
0.000114934
9.94737e-05
9.68027e-05
0.000119998
0.000122521
0.000125906
9.33731e-05
0.000122838
0.000110883
9.79026e-05
0.000112426
0.000127717
0.000124349
8.00711e-05
0.000143807
0.000122949
9.42901e-05
0.000107248
0.000114177
0.000117114
0.000163304
0.000147729
0.000107334
0.000106468
0.000134829
9.68769e-05
9.09997e-05
9.97315e-05
0.000126764
9.5954e-05
0.000130624
0.000110407
7.66147e-05
9.05915e-05
0.000133423
0.000153966
8.89041e-05
0.000119536
0.000132766
0.00010934
0.000107512
0.000113654
8.04692e-05
0.000105882
7.34872e-05
0.000124709
0.00012195
0.000104161
0.000122961
9.051e-05
0.000114264
0.000106659
0.000110657
0.000122397
0.000104904
0.000124462
8.19079e-05
0.000117817
0.000134252
0.000126419
0.000123838
0.000125167
9.22989e-05
7.60449e-05
0.000121101
0.00013904
0.000100121
0.000109411
0.000123577
0.00011891
0.000125267
0.000137152
8.96709e-05
0.000114952
8.03128e-05
0.000112858
0.000100363
7.36419e-05
0.000126186
8.82502e-05
0.000102422
0.000136076
0.000103635
8.70805e-05
0.000103901
0.000108639
0.00010916
9.91837e-05
0.000132317
0.000108869
8.28784e-05
9.64509e-05
0.000117835
0.000126282
0.000116046
8.75424e-05
8.44877e-05
8.54825e-05
0.000110178
0.000112267
0.000111093
0.000102168
0.000138694
9.50969e-05
0.00010601
0.000102825
0.000121448
6.94095e-05
0.000103566
8.76931e-05
0.00013625
0.000108815
0.00013087
0.000107823
0.000122864
0.000115077
0.000108335
0.00011193
8.83718e-05
0.000123126
8.1539e-05
0.000100645
0.000110855
0.000103304
0.000120102
0.000102687
0.000123384
9.91897e-05
0.000118658
9.95318e-05
0.000110364
0.000113511
0.000107364
0.000103765
0.000123016
0.000114146
9.97752e-05
0.000107631
8.42345e-05
0.000121621
0.000112533
0.000113823
0.000132726
0.000101674
9.64497e-05
0.000124687
9.72106e-05
0.000122786
9.30546e-05
0.000146244
9.90975e-05
0.000107966
7.43478e-05
0.000108752
0.000155964
0.000143589
0.000134648
0.000117049
9.55551e-05
0.000115436
0.000144955
0.000135646
0.000135032
0.000123197
0.000113011
0.000120892
0.000109936
0.00010358
0.00010064
0.000120547
0.000128002
0.000125763
9.28891e-05
0.00012344
0.000107823
8.39068e-05
0.000107905
0.000118418
0.00010898
0.000113099
0.000101811
0.000126943
7.31331e-05
6.46647e-05
6.8178e-05
0.000100905
7.28142e-05
0.000129042
6.68582e-05
8.07628e-05
8.14324e-05
8.93241e-05
0.000110375
0.000104926
0.000134375
0.000123469
0.00010223
9.74367e-05
0.00010109
0.000113326
0.000107813
0.000132469
0.000133325
0.000138164
0.000100404
0.000130785
9.59215e-05
9.00592e-05
0.000117835
0.000120297
5.2405e-05
9.80908e-05
0.000104746
0.000110201
0.000120702
0.00010356
0.000116987
0.00011578
0.000116609
9.5887e-05
0.000113566
0.000103121
0.000115904
0.000120647
9.38373e-05
0.00014024
0.000118831
0.00012865
0.000113677
0.000139875
0.000108869
0.000101201
0.000127941
0.00011625
8.72892e-05
0.000117068
0.000126815
0.000108916
0.000112384
0.000135294
9.13838e-05
0.000112087
0.000115811
0.000118191
0.000147755
0.000101879
0.000125356
0.000121682
0.000113423
0.000111165
0.000124636
9.09022e-05
9.84798e-05
0.000125726
0.000114697
0.000113611
0.000142724
9.78989e-05
0.000106112
0.000104118
0.000114744
0.000126408
0.00011907
0.000131439
0.00013103
0.000144518
0.000103327
0.00013006
0.000114396
0.000103184
0.000125037
9.06008e-05
8.15118e-05
0.00010042
0.000112131
0.000121108
0.000135677
0.000121811
0.000116415
0.000108889
9.12536e-05
9.8537e-05
0.000124525
0.000115409
0.000110562
0.000101195
0.00013927
0.000124288
0.000102876
0.000110225
0.000108151
0.000104701
0.000118742
0.000102248
0.00012875
0.000100684
0.000103049
0.000114628
0.000123398
0.0001075
9.66546e-05
0.000103578
0.000125487
0.000107711
9.42659e-05
0.000140644
0.000130307
0.000123761
0.000104378
8.61721e-05
0.000118806
0.000116932
9.27133e-05
0.000112656
8.46895e-05
0.000148819
0.000118073
0.000129827
0.000120148
5.79953e-05
0.000105174
9.35558e-05
8.44094e-05
0.000131248
8.9845e-05
7.54133e-05
0.00011587
0.000101127
7.36122e-05
9.45066e-05
0.000119956
0.000121929
0.000112105
8.01753e-05
0.000110607
0.00013314
0.00010258
0.000114205
0.000106198
0.000118225
0.000104325
8.89118e-05
0.000101999
0.000129864
0.000122634
8.43401e-05
0.000103145
0.000101708
0.000135492
0.000104636
0.000100796
0.000164215
0.000102039
0.000122016
0.000207225
9.69865e-05
0.000105063
0.000107803
0.000103788
0.000100443
8.80426e-05
0.000107179
0.000114358
8.81641e-05
0.000101492
0.000131103
4.80829e-05
0.00010859
0.000133311
9.74326e-05
0.000141146
0.000121027
0.000108001
0.000106374
0.000102814
0.000111266
0.000111283
0.000103898
8.48632e-05
0.000119724
0.000108242
0.000136394
0.000125202
0.00012487
0.00011973
0.000109453
0.000105252
0.000108717
0.000103484
8.92559e-05
0.00011208
0.000108075
0.000108809
0.000110647
0.000125879
0.000127562
0.000112314
7.67762e-05
0.0001189
0.000100124
0.000114303
0.000112275
7.41745e-05
0.000116837
7.6591e-05
0.000106027
0.000104949
7.43538e-05
0.000108757
0.000108377
0.000102566
0.000113974
0.000128739
0.000124078
0.000134737
0.000101844
0.000110759
0.000117289
0.000144902
0.000135827
0.000119549
9.99096e-05
0.000104121
0.000122787
0.000129237
0.000132506
0.000124754
9.84537e-05
0.000127279
0.000110109
0.000108648
0.000133853
9.17823e-05
0.000114825
8.88433e-05
0.000112237
0.000100215
8.79512e-05
0.000117493
0.000104139
0.000114929
0.000120013
9.7933e-05
8.97397e-05
0.000109281
9.7037e-05
9.46339e-05
8.78695e-05
0.00012636
8.99317e-05
0.000105935
8.99887e-05
8.13999e-05
0.000100103
7.41117e-05
0.000108532
0.000114885
0.000107167
9.87058e-05
0.000143861
0.00011858
0.000126096
9.23531e-05
0.000113954
9.5853e-05
0.000126555
0.000142564
8.36511e-05
9.92191e-05
0.000116147
7.65506e-05
7.65937e-05
8.37529e-05
0.000119082
0.000112406
0.000115976
0.000102255
0.000114917
0.00010428
8.32198e-05
0.000119018
8.47733e-05
0.000113579
0.000104368
0.000101369
0.000135305
0.000110586
0.000106461
9.4338e-05
7.76055e-05
0.000132373
0.000111106
8.53634e-05
0.000126829
0.000110838
8.59527e-05
8.61331e-05
8.2696e-05
7.69673e-05
0.0001089
9.90409e-05
0.00010099
0.000137283
0.000117631
0.000129691
6.18405e-05
0.000105187
9.65025e-05
0.000128885
0.000103766
0.000113972
8.2246e-05
0.000115847
0.000110828
0.000101239
0.000143765
0.000115707
0.00010979
0.000109905
0.000123212
9.46544e-05
8.58419e-05
0.000133514
0.000115984
0.000110602
0.000117182
0.000121181
8.44589e-05
0.000105652
0.000102604
0.000118086
7.72191e-05
0.000107709
0.000115459
0.000122488
0.000124829
0.000113772
7.07879e-05
9.24024e-05
0.000122836
0.000124185
0.000137053
8.09951e-05
0.000124188
8.26738e-05
9.7875e-05
9.15778e-05
0.000111956
0.000105475
8.272e-05
0.000119913
0.0001037
8.49102e-05
0.000100239
0.000108606
0.000103123
0.000132305
9.73503e-05
9.3185e-05
9.85762e-05
0.000115069
0.000112904
0.000103528
0.00010737
0.000110052
0.000114657
0.0001043
9.05445e-05
0.000104378
0.000124971
0.000117152
7.85976e-05
8.30357e-05
9.32266e-05
0.000110408
0.000105681
9.50196e-05
0.000123797
9.68901e-05
0.000125092
7.53275e-05
0.00012098
9.21164e-05
0.000117483
0.00012005
9.41002e-05
0.000101801
0.000140508
0.000100067
0.000144084
0.000110498
7.6294e-05
0.000120954
0.000128831
0.000114219
9.76609e-05
0.000101242
8.254e-05
0.000124307
8.44906e-05
8.39316e-05
0.000109517
9.63628e-05
7.82884e-05
0.000105029
0.000107641
8.5208e-05
9.51764e-05
6.89602e-05
7.60271e-05
7.64446e-05
9.11347e-05
0.000106838
0.00011412
0.000114015
8.9675e-05
0.000111489
0.000103223
0.000110311
0.000141425
0.000132364
0.000118998
0.000114229
0.000100267
8.99073e-05
0.000116607
0.000108229
0.000135702
0.000130007
0.000107663
0.000101263
0.000112149
8.26025e-05
0.000108948
0.000109698
0.000115865
7.4638e-05
0.000105269
9.83972e-05
0.000114054
0.00011804
0.000105002
0.000102023
9.25687e-05
0.00010073
0.000109629
9.35031e-05
0.000110361
9.46275e-05
0.000133508
9.63622e-05
0.000107343
0.00012175
0.000122895
0.000112104
0.000108651
9.68695e-05
0.00011218
0.000101787
0.000100752
8.24882e-05
8.33546e-05
0.000111242
7.64687e-05
8.12435e-05
0.000113983
0.000127904
0.000127687
8.53429e-05
0.000139308
0.000111797
0.000125291
0.000106693
9.94174e-05
0.000118396
9.78948e-05
0.000100702
0.000126056
0.000109365
0.000139523
0.000111711
0.00011504
0.000104858
0.000125332
0.000108356
0.000104109
0.000122856
0.000110795
0.000108642
0.000110218
0.000108165
0.000110514
0.000109769
0.000101035
7.2135e-05
8.97608e-05
0.000129597
9.82363e-05
0.000116759
0.000127911
0.000104682
0.000107316
9.77073e-05
0.000120714
0.000101362
0.000114217
0.000120381
0.000113651
0.000111295
0.000108779
7.90809e-05
9.67112e-05
0.000112555
7.95258e-05
0.000114614
0.000109816
8.89271e-05
9.73829e-05
0.000124985
0.00012287
0.00015007
0.00010759
0.000141059
5.90636e-05
7.99572e-05
0.000117479
0.00011084
0.000101971
0.000112556
0.000124988
0.000105614
7.76797e-05
0.000121579
0.000141295
0.000122183
0.000137553
0.00010854
0.000116638
0.000112673
0.000123312
0.000119293
0.000116818
0.000122637
0.000118078
0.000119563
0.000107351
0.00011713
0.000102968
0.000114504
0.000119954
0.000109344
7.31414e-05
8.58454e-05
0.000103812
0.000117896
0.00010453
0.000113875
0.000108928
0.000121043
6.87425e-05
0.000100214
0.000118044
8.79258e-05
0.000103126
0.000140213
9.57927e-05
0.000109684
0.00014078
7.85356e-05
9.40398e-05
7.67293e-05
9.87213e-05
0.000130098
0.000125998
9.80717e-05
8.88733e-05
0.00010787
0.000144181
0.000124426
0.000115797
0.000129875
9.19802e-05
0.000115313
0.000147537
7.7906e-05
0.000115978
0.000105112
0.000143153
9.17502e-05
0.000107669
8.54243e-05
0.00011998
0.00012329
0.000115585
0.000142518
0.000104716
0.000106038
0.000115055
0.000124931
0.000110578
8.74669e-05
0.000118141
0.000104548
0.000105446
9.90514e-05
0.000113912
0.000110117
9.82254e-05
8.95055e-05
0.000116968
9.03972e-05
0.000123423
0.000137361
0.000134923
0.000112023
0.00011398
0.000109694
0.000134648
0.000111468
0.000112652
0.000111267
8.78207e-05
0.000105774
0.000115416
0.000102475
0.000101731
0.000113615
9.85096e-05
0.00010293
9.75944e-05
8.75756e-05
0.00010471
0.00014718
8.54584e-05
0.000103949
9.80177e-05
0.000108753
0.000125843
0.00012621
0.000118901
0.000100449
0.000109733
0.000102814
9.94612e-05
0.000105438
0.000101437
9.72264e-05
0.000111834
0.000119346
0.000102217
9.66021e-05
9.77738e-05
0.000106641
0.000121693
9.5236e-05
0.00010056
9.65514e-05
0.000102864
0.000106465
9.32352e-05
0.000105131
0.000113336
8.85723e-05
0.000102059
0.000125101
0.000124569
0.000102775
0.000113693
9.40826e-05
6.81085e-05
0.000135133
9.6805e-05
0.000108985
9.87457e-05
0.00010941
0.000139396
0.00011443
0.000130737
0.000140181
0.00011114
0.000105232
0.00011389
9.3335e-05
0.000105632
9.5113e-05
8.70913e-05
8.50882e-05
0.000121567
0.000106158
0.000109621
0.000125386
0.000122929
8.90913e-05
0.000100871
9.64632e-05
8.76655e-05
0.00010519
0.000119158
0.000100374
0.000102486
0.000106314
0.000111027
0.000113478
9.02088e-05
0.000104556
0.000122291
0.000102679
0.000110362
0.000112782
0.000113624
8.54906e-05
0.000106778
0.000138693
9.90207e-05
8.74849e-05
9.9048e-05
0.000108277
9.24249e-05
0.000113163
0.000104135
0.000116631
0.000102996
8.87836e-05
0.000104631
0.000112542
6.48813e-05
9.93342e-05
0.000102928
0.000102932
9.24436e-05
0.00012823
0.000107918
0.000113118
0.000110503
0.000100878
0.000135289
0.000100382
0.000100898
9.41249e-05
0.000113891
8.1529e-05
0.000136354
9.96027e-05
0.000116291
8.77234e-05
0.000114661
8.54991e-05
9.56935e-05
0.000125156
0.000109614
0.00011101
0.000114909
8.89318e-05
9.55256e-05
0.00013943
9.48746e-05
8.63067e-05
0.000102255
0.000116422
0.000112921
0.000110698
0.000114727
0.000113581
0.000111206
0.000103794
0.000117651
0.00011153
0.000132731
0.000107067
0.00011226
0.000114441
0.000101559
0.000117258
0.000113339
0.0001187
0.000105364
0.000120252
0.000110214
0.000112588
0.000124465
0.000103409
0.000105407
0.000112798
0.000156955
9.12058e-05
0.000118509
0.000130405
0.000141693
0.00011394
0.000129328
0.00012528
0.000121438
0.00010707
0.000120734
7.55395e-05
0.000141387
0.000129953
0.000120779
0.000105087
0.00011394
0.000132092
9.0509e-05
0.000123049
7.14458e-05
0.000119529
0.000125383
8.64572e-05
0.000107265
9.82797e-05
0.000143233
0.000102283
0.000103629
5.99432e-05
5.79844e-05
0.000121243
8.3954e-05
6.51856e-05
9.87898e-05
9.3022e-05
8.78845e-05
0.000110187
5.86948e-05
0.000108861
0.000133923
0.000133021
0.000122639
6.88272e-05
0.000107416
9.11324e-05
0.000123911
9.69872e-05
0.000153078
9.06397e-05
0.000105956
0.000124412
8.35531e-05
9.9362e-05
9.27099e-05
8.97898e-05
0.000102214
8.80929e-05
0.00011376
0.000137061
0.000138964
8.40422e-05
9.54071e-05
9.2289e-05
0.000118983
7.75831e-05
8.69039e-05
0.000108112
0.000112292
0.000121398
0.000129967
0.00010626
0.000149007
0.000110201
0.000119555
0.000122622
0.000107042
0.000108962
0.000123687
0.000100195
0.00010662
9.76162e-05
0.00010668
0.00011253
0.000136826
8.39259e-05
0.00012221
9.9985e-05
8.35694e-05
0.000105694
8.46632e-05
8.14409e-05
0.000109714
0.000102419
8.45029e-05
0.000105539
0.000102321
0.000112728
8.29523e-05
0.000119762
0.000114813
8.71151e-05
0.000125524
0.000117568
9.82085e-05
0.000127213
0.000116623
8.80962e-05
0.000125275
0.000103365
8.44066e-05
0.000106851
0.000122655
0.000103605
8.44274e-05
0.000125963
0.000116759
0.000114698
0.000121213
0.000114166
0.00011438
0.000128592
9.48129e-05
0.00013591
0.000117962
9.68292e-05
0.000131571
0.000139282
0.000118654
0.000121857
0.000107455
0.000123605
0.000102243
0.000122313
9.11936e-05
0.000108323
0.000115879
0.000116325
0.000115831
0.000116953
0.000125919
0.000118338
8.34212e-05
0.000124391
0.000120323
0.000155475
0.000111719
0.000103796
0.000125184
6.37128e-05
0.00010311
0.000101268
0.000116436
8.33275e-05
0.00011677
0.000135034
0.000104579
0.000114129
0.000126488
7.1993e-05
0.000107938
0.000114007
0.000115837
0.00010853
0.00014441
0.000134855
7.0535e-05
0.000150677
0.000130583
6.89518e-05
0.00010592
0.000125025
6.58408e-05
0.000114657
0.000103589
0.000129648
0.00011662
9.55558e-05
0.000106228
6.83939e-05
0.000121073
0.000116123
6.87446e-05
0.000137014
0.000118905
7.43464e-05
0.000122802
0.000116912
0.000142388
0.000112253
0.000113871
0.000115685
0.000107444
8.16762e-05
0.000122299
0.000114537
8.22691e-05
0.00011998
0.000118509
7.79189e-05
0.00010176
0.000106546
0.000102396
0.000112731
0.000110908
0.000109276
0.000137836
0.000105155
0.000121301
0.000114745
7.26001e-05
0.000137051
0.000115075
7.31158e-05
9.76305e-05
7.76057e-05
0.000137308
0.000104997
0.000136543
0.00011343
6.80713e-05
0.000129093
7.25803e-05
0.000124074
0.000108278
7.41068e-05
0.000120956
0.000114838
0.000120038
7.90403e-05
0.000125679
0.000113906
7.1093e-05
9.94828e-05
0.00010815
7.82117e-05
7.351e-05
0.000107593
0.000137938
8.76781e-05
0.000108737
7.05293e-05
0.000103271
0.000142294
0.000128571
8.34395e-05
0.000120699
9.19362e-05
7.4716e-05
0.000130025
0.000111583
0.000125775
7.30433e-05
0.000121284
0.000120781
0.000118078
0.000129518
0.000114205
0.000125439
7.01429e-05
0.000107075
0.000138589
7.85775e-05
7.62487e-05
0.000112231
0.000107139
0.000104753
0.000125266
0.000169509
6.59909e-05
0.000102363
9.39678e-05
0.000113672
7.60577e-05
6.7449e-05
6.86882e-05
0.000111838
7.1803e-05
0.000110804
7.45742e-05
7.69569e-05
0.000109986
0.000118966
0.000119016
0.000115795
8.05276e-05
0.000128377
0.000118947
0.000125398
0.000107263
0.000108395
0.00014305
0.000140794
0.000123953
0.000118471
8.22361e-05
0.000135243
0.000124828
0.000129167
0.00012478
7.07054e-05
6.96436e-05
0.000101237
0.000110719
0.00010271
0.000113254
9.54697e-05
0.000109551
0.000100811
8.40661e-05
8.5592e-05
0.000100104
7.9555e-05
0.000112423
0.000105553
0.000113319
8.47278e-05
0.000107913
0.000116372
0.000103844
0.000116684
0.000119017
0.00010957
7.78483e-05
0.000124448
0.00011462
0.000102106
0.000138094
7.41041e-05
0.000110766
0.000119201
0.000115504
9.81184e-05
0.000116016
0.000106864
0.0001052
8.38784e-05
0.000106059
0.000128499
0.00012206
9.09204e-05
8.0415e-05
0.000107745
7.48014e-05
9.26846e-05
0.00012602
0.000134867
9.83487e-05
0.000139999
0.000114614
0.000114916
0.000118396
0.000143703
0.000135001
9.56799e-05
7.52159e-05
0.000123124
9.70904e-05
7.53778e-05
0.000125447
0.000127404
0.000141581
0.000101473
0.000116655
0.000129125
0.000106702
0.000109568
0.000112873
7.75752e-05
0.000122129
9.82669e-05
8.8917e-05
0.000133597
0.000123893
0.000137685
7.90889e-05
0.000113172
0.000151297
0.000109573
8.22309e-05
9.32527e-05
9.49409e-05
0.000109254
7.93499e-05
9.25928e-05
0.000101693
7.4993e-05
0.000116662