/*--------------------------------*- C++ -*----------------------------------*\
| =========                 |                                                 |
| \\      /  F ield         | OpenFOAM: The Open Source CFD Toolbox           |
|  \\    /   O peration     | Version:  v2012                                 |
|   \\  /    A nd           | Website:  www.openfoam.com                      |
|    \\/     M anipulation  |                                                 |
\*---------------------------------------------------------------------------*/
FoamFile
{
    version     2.0;
    format      ascii;
    class       volScalarField;
    location    "0.5";
    object      CH4;
}
// * * * * * * * * * * * * * * * * * * * * * * * * * * * * * * * * * * * * * //

dimensions      [0 0 0 0 0 0 0];


internalField   nonuniform List<scalar> 
108993
(
0
0
3.11498e-91
3.49396e-98
9.39075e-129
0
0
3.99567e-168
1.17054e-40
2.09527e-228
3.34467e-119
3.31162e-111
3.78189e-108
0
3.11959e-193
1.57576e-170
2.26499e-234
0
0
0
5.20477e-161
0
0
4.7807e-172
6.72009e-107
0
0
0
0
1.3464e-142
9.06206e-16
9.65432e-171
5.19446e-27
0
1.54458e-91
1.54099e-144
0
0
0
0
0
0
0
0
0
0
8.16737e-25
0
0
0
0
0
0
0
4.79899e-231
4.42894e-164
0
2.09316e-109
1.54037e-87
0
0
0
0
0
0
0
5.5672e-115
1.51592e-103
1.8645e-180
0
0
0
9.32392e-118
4.276e-108
0
1.5864e-15
0
0
0
0
2.2407e-113
0
3.65528e-70
1.20593e-100
0
5.65856e-173
0
5.04104e-121
5.98403e-118
2.18916e-114
0
4.29881e-17
0
5.09115e-131
0
1.40262e-162
1.38201e-18
0
5.07942e-17
5.34297e-19
6.96018e-105
3.78919e-76
1.33863e-164
0
1.48079e-113
0
2.70563e-122
0
0
0
4.58852e-310
0
0
0
1.85147e-62
0
0
2.78255e-86
0
0
0
0
0
2.41031e-89
0
6.35143e-174
0
3.01988e-124
5.10496e-70
0
5.38393e-151
0
0
1.478e-278
0
0
0
0
0
1.43e-179
1.07083e-83
9.21629e-11
4.06273e-209
1.05719e-69
1.61968e-69
4.19096e-120
0
0
6.80477e-87
0
0
0
0
0
6.47838e-72
0
0
0
0
0
0
1.75655e-39
1.53528e-08
0
0
0
1.13833e-131
0
0
1.06775e-71
0
2.9057e-158
3.26596e-282
0
0
0
0
0
1.71832e-66
0
7.99408e-194
0
0
5.6788e-90
2.21739e-166
1.65236e-135
2.9992e-61
0
0
0
0
3.18845e-48
0
0
0
5.04903e-101
0
0
0
6.37295e-88
4.26613e-128
0
2.11577e-165
0
0
0
0
0
6.12956e-67
0
0
3.26493e-118
0
0
0
0
0
0
7.28301e-47
1.2651e-31
0
0
0
0
0
0
0
0
0
0
0
0
0
0
0
1.33979e-28
0
0
0
7.83533e-44
6.38785e-13
8.89638e-56
0
1.06299e-47
1.43667e-52
0
0
0
5.94914e-42
0
0.0248855
0
0
0
2.43479e-55
0
0
0
0
0
2.66054e-36
0
1.48726e-167
0
1.4131e-54
0
5.93458e-33
0
0
0
1.82655e-139
3.5461e-70
0
0
0
3.81715e-69
1.75851e-14
0
0
0
0
0
0
0
5.26894e-55
0
3.58178e-105
0
0
0
0
0
0
1.70676e-24
0
0
0
0
9.80713e-248
3.67854e-148
0
0
0
5.63899e-148
1.10033e-48
0
0
0
0
0
1.98706e-130
0
0
9.03734e-138
0
0
0
0
0
3.5822e-46
0
0
0
0
9.81974e-106
0
0
0
2.01064e-32
1.3159e-105
0
0
0
0
0
0
1.37537e-46
3.15971e-100
8.76764e-58
4.65336e-52
0
0
0
9.04056e-112
0
3.55923e-210
1.36919e-53
0
2.19145e-50
1.42067e-57
4.80333e-31
0
0
0
0
0
0
0
1.15577e-111
0
0
0
3.71081e-51
0
0
0
1.03722e-46
1.04798e-51
0
0
0
5.59662e-148
8.26091e-54
0
0
0
2.93737e-140
4.54152e-52
0
1.25189e-91
0
0
0
0
0
0
0
1.75601e-301
0
0
0
0
0
0
0
0
0
0
5.36157e-182
0
0
0
0
4.64357e-41
0
0
0
0
4.23616e-105
0
1.44347e-211
0
0
1.1132e-161
0
0
0
5.96896e-258
0
0
0
0
0
0
2.81436e-124
0
0
0
0
1.88222e-144
0
0
0
3.0583e-67
0
2.42655e-225
0
0
0
7.5307e-14
4.44357e-182
9.07452e-52
0
0
0
0
0
0
1.27054e-55
0
6.06496e-161
0
0
3.18858e-154
0
0
1.09953e-179
0
0
0
0
1.13438e-91
0
0
0
0
0
0
0
1.26193e-78
3.95402e-263
5.72666e-124
6.17352e-34
0
0
1.71219e-195
2.05857e-08
0
0
0
7.14976e-113
0
0
0
0
0
0
0
0
0
3.01144e-183
1.83368e-138
0
0
0
4.84259e-140
1.08146e-115
0
0
0
1.41692e-80
0
0
0
2.85878e-228
0
0
0
0
5.14418e-54
2.7817e-154
0
0
0
0
0
0
0
0
0
0
0
0
0
0
0
0
9.78297e-60
0
0
0
9.10288e-143
0
5.58445e-196
0
7.50724e-56
0
6.79911e-151
2.03388e-194
0
0
0
2.09508e-146
1.08266e-119
6.49542e-93
7.23346e-64
0
0
2.91466e-86
4.66336e-36
0
0
0
2.96132e-136
0
0
0
0
0
0
6.96219e-158
2.42072e-08
0
0
0
0
0
0
0
0
0
0
0
0
0
0
0
0
0
0
0
3.965e-136
8.80959e-76
6.71053e-84
0
9.23754e-209
0
0
0
0
0
0
0
0
0
0
6.21118e-38
0
0
6.51483e-210
2.00997e-64
0
0
0
2.89666e-202
0
0
1.59134e-176
6.72896e-167
0
0
0
2.4333e-224
1.93033e-94
0
0
0
5.30588e-174
0
0
0
0
0
0
0
0
0
0
0
0
0
0
0
0
3.86547e-146
0
0
0
2.21985e-200
0
0
9.88131e-324
0
0
0
6.92422e-152
4.10372e-145
0
0
0
0
0
0
0
0
0
1.29267e-208
0
0
0
0
0
8.05409e-172
1.0226e-27
0
0
0
0
0
0
0
0
0
0
0
0
0
0
0
0
0
0
0
1.2012e-151
0
0
0
2.00092e-265
0
0
5.44507e-46
4.38958e-75
0
0
0
1.303e-276
0
0
0
0
0
0
0
0
0
0
6.49901e-232
0
0
0
0
0
0
0
0
8.64284e-118
0
8.27815e-199
2.23187e-145
0
0
0
0
0
0
0
0
0
0
1.44975e-131
0
1.16518e-146
0
0
0
5.38043e-143
0
0
0
0
0
2.09603e-160
0
0
0
0
1.85306e-142
4.36828e-141
3.14752e-149
1.42001e-191
2.14919e-149
0
0
0
0
0
0
6.49662e-149
6.22974e-184
0
0
0
0
1.67713e-120
0
0
0
0
0
0
1.30056e-122
0
0
0
0
0
7.61087e-125
0
0
3.02099e-182
7.68452e-62
7.33124e-205
2.06011e-124
0
0
0
0
1.25852e-160
9.71686e-55
0
1.12111e-33
0
1.39354e-23
0
0
0
0
0
0
0
0
1.26738e-179
0
0
1.78539e-168
0
0
0
0
0
4.26424e-101
0
0
1.19284e-267
0
0
0
0
2.09073e-301
0
2.9721e-315
0
0
0
0
0
0
2.25114e-239
0
0
0
0
0
0
1.9021e-241
0
0
7.69551e-300
0
1.10529e-114
1.37923e-166
0
0
0
0
0
0
0
0
0
0
7.12677e-127
0
0
0
0
0
0
0
0
0
0
0
0
0
0
0
6.33207e-202
0
7.82172e-199
0
9.97701e-61
1.33642e-185
0
3.19494e-53
0
0
0
0
0
0
0
0
0
0
4.99745e-235
4.07161e-126
0
0
0
1.07368e-86
0
6.79017e-180
3.69883e-191
0
0
2.14712e-134
0
0
5.40229e-108
0
0
0
1.26098e-232
0
4.62361e-159
0
0
0
0
9.19757e-163
2.39112e-195
0
0
6.44642e-251
0
1.91869e-248
0
0
0
1.09699e-188
6.23468e-151
0
0
0
0
0
0
0
0
0
0
1.11229e-278
0
0
3.06684e-175
2.71996e-68
0
9.44774e-167
0
0
0
0
0
0
0
1.8417e-236
0
0
0
0
8.73382e-171
0
0
0
0
0
2.27738e-178
0
1.61526e-170
0
0
0
3.17556e-318
2.68854e-200
5.27923e-188
0
0
0
0
2.58893e-196
0
2.78419e-234
5.77793e-21
0
4.32862e-199
4.83292e-06
0
0
2.31517e-201
0
1.99994e-76
3.52367e-111
0
0
1.30134e-108
0
0
6.73908e-118
4.13646e-130
3.14166e-217
0
0
0
0
0
0
0
0
6.90893e-280
0
3.46224e-116
1.91207e-125
0
0
0
0
0
0
0
0
9.5122e-218
0
0
0
4.61866e-119
5.58597e-138
0
0
3.63925e-189
0
0
1.24852e-30
0
0
0
0
0
0
4.75515e-279
0
0
0
0
0
0
1.23091e-107
2.161e-48
0
0
4.28425e-157
0
0
1.21591e-204
6.02805e-152
0
0
0
0
0
0
0
0
0
0
0
0
1.25471e-137
0
0
7.41321e-316
0
0
2.02822e-146
0
0
1.18418e-104
0
0
1.4774e-190
0
0
0
1.9097e-274
0
0
0
0
0
0
4.51924e-174
0
0
0
9.95124e-177
0
0
9.86019e-272
4.10816e-271
0
8.52011e-177
5.18146e-117
3.13898e-181
0
0
0
9.44817e-196
0
0
0
1.01099e-101
3.01325e-103
0
3.63836e-83
0
1.4822e-323
0
0
4.76615e-106
0
9.94467e-155
9.72318e-170
0
7.56659e-180
4.46989e-123
3.32596e-114
3.77256e-37
2.79223e-113
1.64141e-110
2.82462e-135
0
0
0
1.2981e-116
4.94946e-191
2.96266e-112
0
0
0
0
0
0
0
1.49896e-129
0
1.35016e-104
0
7.90519e-85
0
2.64691e-283
3.91352e-160
0
0
0
7.31289e-102
0
0
0
3.13828e-123
0
4.50394e-34
0
0
8.5218e-31
0
2.97556e-07
0
0
0
0
0
0
0
0
0
0
0
0
0
7.17503e-182
0
0
0
0
6.68543e-311
0
0
0
0
0
0
3.18325e-207
0
3.59948e-222
0
0
1.99979e-154
0
0
0
0
1.12648e-102
0
0
0
5.6607e-33
0
0
0
7.63763e-14
0
0
0
0
0
0
8.17188e-92
2.34355e-238
0
0
0
0
0
0
0
0
9.17786e-220
0
0
0
8.19394e-151
1.78782e-190
0
1.1802e-174
0
1.88712e-58
3.46706e-172
4.89253e-109
0
0
0
0
0
0
0
0
0
3.42762e-155
0
2.08303e-149
0
3.5403e-116
0
0
0
9.2455e-217
1.09248e-156
0
5.14294e-144
0
0
0
0
0
0
0
0
0
0
1.37055e-110
2.49827e-185
1.06746e-135
0
0
0
0
0
0
0
0
0
0
0
1.88694e-319
7.57617e-134
8.55295e-41
0
0
0
0
0
0
0
6.44087e-111
0
0
0
0
0
0
6.11613e-315
0
0
0
0
0
0
0
0
0
0
0
1.96445e-141
0
0
0
0
0
9.37273e-238
0
0
8.70547e-280
9.93771e-158
2.08129e-23
0
3.57364e-63
2.5189e-164
0
0
0
0
5.20806e-169
0
0
4.23759e-155
0
0
0
0
4.40792e-39
0
0
0
0
0
0
0
4.65197e-174
0
0
0
0
7.63057e-134
8.35776e-167
5.85836e-164
0
0
0
7.3379e-27
0
0
0
0
0
0
0
8.20716e-212
0
0
0
0
0
0
0
3.83772e-83
0
1.7345e-134
2.49587e-203
0
1.67161e-195
0
0
0
0
0
0
0
8.9485e-106
0
0
3.69745e-195
1.31394e-92
0
3.09274e-314
0
0
0
9.79566e-220
0
2.28966e-260
0
0
8.57721e-258
2.89154e-14
0
0
0
0
0
1.78246e-273
0
0
0
0
5.72796e-255
0
0
1.13062e-215
3.32762e-189
0
1.45919e-208
0
0
0
0
0
0
0
0
0
0
4.21314e-253
0
0
4.11383e-223
0
7.32503e-140
1.10794e-268
0
0
0
0.0378948
1.6416e-38
0
0.000921525
0
0
0
0
0
0
0
0
0
0
0
0
5.18604e-250
0
0
0
0
0
2.0875e-140
0
0
0
3.71536e-144
0
0
0
0
0
0
0
0
2.23283e-143
2.32209e-119
0
0
0
0
8.39703e-305
0
0
0
0
0
2.01968e-105
0
0
0
0
6.11142e-113
0
0
3.99936e-197
0
0
0
0
1.14582e-317
0
0
0
2.79145e-47
5.98636e-76
0
0
6.68976e-112
4.17561e-191
1.57533e-225
0
0
0
0
0
0
0
0
0
0
0
0
0
0
0
0
0
0
0
0
0
0
0
0
0
0
0
0
0
0
0
0
0
0
0
0
0
0
0
0
9.0896e-146
0
0
3.5681e-49
0
0
0
0
0
6.93853e-171
0
0
0
0
0
0
1.39547e-270
0
0
0
0
0
1.13325e-171
0
0
0
0
1.56542e-168
0
0
0
0
0
7.71642e-209
0
0
2.50629e-166
3.23204e-155
0
0
0
0
0
1.28592e-314
0
2.36326e-285
0
0
0
0
0
0
0
0
1.20196e-173
0
0
0
0
0
0
0
1.1731e-121
3.13544e-263
0
0
0
0
0
0
0
0
0
0
0
0
0
0
1.65729e-107
0
0
1.30567e-184
0
3.71487e-54
0
0
0
0
0
0
0
0
0
1.22137e-310
0
0
1.61893e-206
2.03226e-226
0
0
0
0
0
0
0
0
0
0
0
0
0
0
0
0
0
0
2.09129e-211
0
0
0
0
0
0
2.87098e-191
1.40589e-193
0
0
0
7.75068e-276
0
0
0
0
0
0
0
6.99267e-270
0
0
1.48358e-250
0
0
0
0
0
0
0
1.95313e-165
0
6.01712e-193
0
0
0
1.87523e-190
3.61157e-279
0
0
1.54564e-129
0
0
0
0
0
0
6.5058e-72
0
0
0
2.72644e-269
0
0
0
0
0
0
0
0
0
0
0
3.60331e-61
0
0
0
0
3.04249e-186
1.86407e-170
0
2.19939e-131
0
0
0
0
0
0
4.83196e-321
0
0
0
0
3.3058e-252
4.10883e-258
0
5.43472e-323
0
2.00545e-108
0
0
6.27804e-68
0
0
0
0
0
0
0
0
0
0
0
1.82095e-163
0
0
0
0
1.00193e-42
0
7.63865e-151
1.2063e-90
2.04978e-153
6.57459e-156
0
0
0
0
0
5.91217e-93
0
1.73489e-158
0
0
0
0
0
0
0
0
0
0
0
0
0
0
0
0
0
0
1.17918e-227
0
0
0
1.02096e-311
0
0
0
0
0
0
0
0
0
3.56075e-124
0
0
0
0
0
0
0
4.42156e-114
0
0
0
1.67083e-147
0
0
3.3405e-124
0
0
0
0
0
0
0
1.06015e-146
8.69343e-54
1.58236e-12
0
0
0
0
0
2.89768e-15
0
0
0
6.11289e-176
0
1.06754e-178
0
0
0
0
0
0
0
0
0
5.82241e-80
0
0
0
0
0
0
0
2.53895e-153
0
2.31185e-145
0
0
0
0
0
0
0
0
1.24394e-311
6.91189e-145
0
0
0
0
0
0
0
3.54008e-293
0
1.99727e-150
0
1.18676e-204
0
1.15508e-196
1.0581e-210
0
0
0
0
0
0
0
0
0
0
2.32256e-270
1.18258e-150
6.15263e-148
0
0
0
1.08139e-183
0
0
0
0
0
2.23572e-172
0
0
0
0
0
0
0
0
0
0
0
0
0
0
0
0
0
9.51652e-268
0
0
0
1.2928e-226
1.07176e-53
9.31618e-212
0
0
0
3.2478e-278
0
0
0
0
0
0
0
0
0
0
0
0
0
0
0
0
0
0
0
0
0
0
4.99171e-76
0
0
0
2.17328e-283
0
0
0
7.24408e-308
0
0
0
3.65245e-310
0
0
0
0
1.72185e-283
1.19214e-307
0
0
0
0
0
0
1.39882e-165
0
1.5057e-276
0
0
9.58265e-266
7.99672e-134
9.53567e-282
0
0
0
3.0013e-319
0
0
1.24671e-144
0
0
0
0
0
0
0
0
0
0
0
0
3.56228e-144
0
0
0
0
0
0
0
1.45624e-215
6.31147e-164
0
0
0
0
5.16213e-117
8.15275e-238
0
0
7.25149e-253
0
0
0
0
0
0
0
0
2.41238e-307
0
0
0
0
0
0
0
0
0
0
0
0
0
0
0
2.7628e-248
0
0
0
0
0
0
0
0
0
0
0
0
0
5.9924e-176
8.03558e-265
0
0
0
0
7.9825e-128
0
0
1.50421e-235
0
0
0
0
0
0
0
0
0
9.59609e-179
0
3.04577e-267
0
0
0
0
0
5.45883e-178
0
1.05284e-215
0
0
1.90413e-125
0
0
1.47089e-56
0
0
0
0
0
9.59339e-299
0
0
0
0
0
0
0
0
0
0
0
0
0
1.11597e-81
0
0
1.10487e-138
9.19373e-145
0
1.16911e-144
0
0
1.45771e-195
0
0
0
0
0
0
0
0
0
0
0
0
0
9.41306e-208
0
0
0
0
0
0
0
0
0
0
0
6.83403e-147
0
0
0
0
0
0
0
0
0
0
0
0
1.79594e-198
7.43965e-143
3.19948e-124
8.17158e-178
0
0
0
2.21445e-203
5.91706e-91
1.25406e-90
0
0
0
0
0
5.5021e-184
1.38057e-55
0
9.42192e-85
0
0
4.11449e-134
6.38479e-126
3.41473e-79
0
0
0
0
0
0
2.19403e-35
8.41936e-317
8.08951e-254
1.65401e-185
0
0
0
0
6.4779e-114
0
0
0
2.76576e-111
2.23686e-213
9.65007e-190
0
0
0
1.11662e-86
0
0
0
0
1.13198e-278
0
0
2.12901e-208
0
2.49233e-259
2.00591e-321
0
0
8.72134e-265
0
0
0
2.37058e-108
2.33957e-83
1.8494e-116
0
0
1.64708e-115
0
0
0
0
9.8569e-33
2.43435e-30
0
0
0
0
0
0
0
0
0
0
0
0
0
0
0
1.95403e-80
1.35734e-78
0
0
0
0
0
0
0
0
0
0
1.722e-171
5.16139e-166
0
5.10329e-231
0
0
0
6.46454e-145
0
0
1.43652e-176
6.75952e-184
0
0
0
0
0
0
0
0
2.8842e-26
0
0
0
0
0
0
0
0
0
0
0
0
0
1.04167e-227
0
0
0
0
0
0
0
5.00744e-234
0
6.97865e-316
0
0
0
0
0
0
2.19726e-11
3.50635e-13
8.05014e-169
1.79961e-12
0
0
0
0
0
1.28934e-199
0
2.59309e-254
1.24619e-139
0
0
0
0
4.02239e-238
0
1.44133e-313
0
0
0
0
0
0
0
0
1.12947e-287
7.50948e-299
2.08103e-242
0
0
0
0
0
0
8.16909e-175
0
0
0
0
0
4.21396e-202
0
0
0
0
0
0
0
0
8.69529e-288
0
0
1.95988e-131
0
0
0
0
0
0
0
0
0
0
0
0
0
6.8377e-61
0
0
0
0
0
7.45121e-112
0
5.7552e-172
0
0
0
5.25349e-59
0
0
0
0
0
7.44466e-96
1.83832e-196
1.05989e-180
0
0
0
0
1.52768e-59
1.71967e-176
0
0
1.81974e-108
1.53105e-194
0
0
9.86477e-221
0
0
0
0
0
0
0
0
0
0
1.87764e-135
0
0
6.25639e-141
0
0
0
0
0
2.69783e-135
7.04688e-107
0
0
0
0
4.08144e-272
0
0
0
0
0
0
0
0
0
0
0
0
0
0
0
0
0
0
0
0
0
0
0
0
0
0
0
0
1.44492e-295
0
0
0
0
0
0
0
3.1801e-138
0
0
0
1.98871e-137
4.40617e-287
0
0
0
0
0
0
0
0
0
0
0
0
0
0
0
0
0
4.16003e-321
0
0
0
0
0
0
0
0
0
1.35977e-150
0
0
0
0
0
0
0
0
1.46082e-110
0
0
0
0
0
0
0
5.61788e-232
7.16385e-319
4.79379e-119
0
0
0
6.13364e-134
0
0
6.18771e-247
0
0
8.33223e-197
9.26321e-215
0
0
0
0
0
0
0
0
0
0
0
0
0
0
0
4.82534e-66
0
0
1.43819e-200
0
0
0
0
0
0
0
0
0
0
0
0
0
0
0
0
0
0
0
0
0
0
0
0
0
0
0
1.87218e-190
0
6.20161e-295
0
0
0
1.56974e-253
0
1.68599e-268
0
0
0
0
1.65652e-154
0
2.42038e-174
0
0
0
0
1.52503e-172
0
0
3.97432e-154
0
4.85794e-137
0
0
0
2.25255e-143
1.97367e-240
0
3.29418e-285
4.19098e-85
0
0
0
2.34456e-135
0
0
0
0
0
0
0
0
2.1311e-54
0
9.68946e-52
0
0
2.65982e-277
0
0
0
0
0
0
4.75774e-169
0
2.29315e-166
2.48197e-224
0
2.29946e-239
1.2002e-49
2.09655e-58
0
0
0
7.53699e-237
9.31942e-124
0
0
0
2.98325e-234
0
0
0
0
0
0
0
0
0
0
0
6.18343e-75
5.28822e-234
0
0
0
8.82589e-136
0
0
0
0
0
0
0
0
0
0
0
0
0
0
0
0
0
0
4.54597e-194
0
0
0
0
0
0
0
0
0
0
0
0
0
0
0
1.96578e-159
0
0
0
0
0
0
0
0
0
0
0
0
0
8.25655e-129
1.16834e-114
0
0
0
0
0
0
0
0
0
0
0
0
4.45646e-224
0
0
0
0
0
0
0
0
0
0
0
0
0
0
0
0
0
0
2.3463e-282
0
1.52528e-318
0
0
0
0
0
0
0
0
0
0
0
0
0
0
0
1.80774e-155
0
0
0
0
0
0
0
0
0
0
0
0
0
1.54871e-73
0
0
0
2.88108e-98
0
0
0
0
0
0
2.72206e-90
0
0
9.41537e-74
0
0
0
0
0
0
0
0
0
0
0
0
0
0
0
0
0
0
3.38968e-168
0
0
0
6.48159e-64
0
0
0
0
0
0
0
0
0
1.1241e-72
0
0
3.51695e-42
1.78624e-13
0
2.78871e-216
0
0
0
9.92568e-94
0
3.08415e-91
4.03696e-179
0
1.11581e-257
0
0
0
0
0
0
0
8.01428e-65
4.52842e-50
1.62181e-157
0
0
3.12815e-89
0
0
1.36231e-142
0
5.19271e-70
2.29309e-67
0
1.1724e-181
1.86868e-99
0
0
0
0
1.01405e-62
0
0
0
0
6.94617e-60
1.06778e-119
1.79071e-103
3.53262e-121
0
0
0
0
0
0
1.11459e-170
0
0
0
0
7.18881e-211
0
0
0
0
0
0
0
1.08789e-125
9.67847e-68
0
0
0
0
0
0
6.74229e-63
4.98536e-99
0
0
0
0
0
0
0
0
0
0
0
0
7.52766e-121
0
0
0
0
0
0
0
0
0
0
0
0
0
0
0
1.96095e-113
0
0
0
0
0
0
1.55106e-316
4.20755e-290
2.35734e-263
0
0
0
0
0
0
0
0
0
0
0
0
0
4.71842e-303
0
0
0
0
0
0
0
0
0
0
0
0
0
6.47704e-193
0
1.08471e-60
0
0
8.70142e-168
0
0
0
0
4.30397e-56
0
0
0
0
0
0
0
0
0
0
0
0
0
0
0
0
0
0
0
0
0
0
0
6.60045e-60
0
0
0
0
0
0
0
0
0
0
0
0
0
0
0
0
0
0
0
1.76326e-106
0
0
0
0
0
0
0
4.1696e-266
0
0
0
0
0
0
0
0
0
0
0
0
1.61295e-284
0
0
0
0
4.39797e-37
0
0
0
0
0
0
6.58178e-266
0
0
0
0
0
0
0
5.56717e-37
0
0
0
0
0
0
0
0
0
0
0
0
0
0
0
0
0
0
0
0
0
0
0
8.0402e-165
0
0
0
0
5.25824e-73
6.96036e-302
0
0
0
0
0
0
0
0
0
0
0
0
0
0
0
0
0
0
0
0
0
0
6.1918e-136
0
0
0
0
0
0
0
0
0
0
0
0
0
3.01641e-137
0
0
0
0
2.8757e-117
0
1.04297e-114
0
1.4372e-13
0
0
0
0
1.0219e-128
1.53923e-126
0
0
0
0
0
0
2.35845e-124
0
0
0
0
0
0
0
0
0
0
0
0
0
0
0
0
0
9.30147e-240
0
0
0
0
3.32829e-237
0
0
0
0
1.4487e-239
0
0
6.74186e-237
0
0
0
0
0
0
7.29697e-258
0
0
0
0
0
0
0
3.65351e-304
0
0
0
0
0
0
0
0
0
0
0
0
0
0
0
0
0
0
0
0
0
0
0
0
0
0
0
0
0
0
0
0
0
2.06434e-136
0
0
0
0
0
1.06319e-227
0
0
0
0
4.10778e-230
0
0
0
1.26961e-276
0
0
0
0
1.60847e-292
0
2.05263e-264
0
0
4.56678e-249
0
0
0
6.68464e-285
0
2.07961e-230
0
0
0
0
0
0
3.54644e-142
0
0
0
4.00777e-136
0
0
0
0
0
0
0
0
0
3.77091e-140
0
0
0
0
2.78644e-268
1.53423e-142
0
0
0
8.06997e-147
0
0
0
0
0
0
0
0
0
0
0
0
0
0
0
0
0
0
0
0
0
0
0
0
0
0
9.65061e-309
0
0
0
0
0
1.26939e-247
0
0
0
0
0
3.91274e-265
0
0
0
0
0
0
0
0
0
0
0
0
0
0
0
0
0
0
0
2.17273e-267
0
0
0
0
0
0
0
0
0
0
0
0
0
2.17021e-225
0
0
0
0
0
0
0
0
0
0
0
0
0
0
1.00016e-25
0
0
0
0
0
0
0
0
0
0
0
0
0
0
0
0
0
0
0
0
0
0
0
0
0
0
0
0
0
0
0
0
0
0
0
0
0
0
1.16762e-247
0
5.99032e-259
0
0
0
0
0
0
0
0
0
6.44847e-258
0
0
0
0
1.57145e-133
0
0
0
0
0
0
0
0
0
0
9.88131e-324
0
0
0
0
0
0
0
0
0
0
0
0
1.07431e-111
1.86993e-61
0
0
0
0
0
0
6.94967e-131
0
3.05459e-122
1.16608e-109
0
0
8.14701e-104
0
0
0
0
0
0
0
2.58697e-102
0
0
0
0
1.73696e-109
4.39916e-135
0
0
0
0
0
0
0
0
0
0
0
0
0
0
0
0
0
6.45059e-124
0
0
0
0
0
0
2.36048e-216
0
0
0
1.67391e-232
0
3.57029e-12
0
0
0
0
4.98133e-137
0
0
0
0
0
0
0
0
0
0
0
0
0
0
6.08517e-267
0
5.35712e-265
0
0
1.93205e-264
3.8951e-262
0
0
0
0
0
3.84516e-93
0
0
2.75426e-262
0
1.21492e-259
0
1.88043e-124
0
0
2.28273e-277
0
0
0
0
0
0
0
0
0
0
1.16381e-22
9.3448e-314
0
0
0
0
0
0
0
0
8.79685e-212
0
0
0
0
0
0
0
0
0
0
0
0
0
0
0
0
0
0
0
0
1.33208e-193
0
0
0
0
1.89931e-188
0
0
0
0
0
4.87873e-186
0
0
0
0
1.23553e-250
0
0
0
0
0
0
0
0
0
0
4.5415e-231
0
0
0
0
0
0
0
0
0
0
0
0
0
0
0
0
0
0
0
0
0
0
0
0
5.65378e-213
3.7075e-223
0
0
0
0
0
0
0
0
0
0
0
1.14564e-133
0
0
0
0
0
0
0
0
0
0
0
0
3.94311e-249
0
3.32586e-246
0
0
0
0
0
0
0
4.15838e-284
0
2.08329e-271
1.03828e-91
0
0
0
0
0
0
0
0
0
0
0
0
0
0
0
0
0
0
0
0
0
0
0
0
0
0
0
0
0
0
0
0
0
0
0
0
0
1.28303e-276
0
0
0
0
0
0
0
0
0
0
9.77917e-285
0
2.52178e-316
0
0
1.02049e-225
5.33666e-274
0
0
0
0
0
0
0
1.25904e-309
0
0
0
0
1.86934e-266
0
0
0
0
0
0
0
0
0
0
0
0
0
0
0
0
0
0
0
0
0
0
0
8.58035e-146
0
1.97582e-219
0
0
0
0
0
0
0
1.99879e-257
3.85311e-258
6.45749e-146
1.38463e-271
5.55769e-269
0
0
0
0
0
0
0
0
0
0
0
1.34782e-289
0
2.16746e-133
0
1.0323e-317
0
3.0987e-220
0
0
0
0
0
0
0
0
0
0
0
0
1.03189e-217
0
0
0
0
0
0
0
0
0
0
0
0
0
0
0
0
0
1.10781e-219
0
2.42676e-230
0
0
0
4.33446e-230
0
0
0
0
0
0
0
0
0
0
6.11604e-78
6.62096e-41
0
0
6.55989e-126
0
7.72471e-228
1.25796e-227
0
1.04233e-143
0
0
1.83534e-220
0
3.69479e-154
0
0
0
5.58737e-115
0
0
1.7658e-136
0
0
0
0
1.01428e-109
0
1.42555e-184
5.04488e-174
1.28588e-166
0
2.43416e-170
0
0
0
0
0
0
0
0
0
0
1.54015e-164
0
2.63117e-217
0
2.48491e-160
0
1.29844e-155
0
1.11878e-199
0
0
0
5.53539e-193
1.84141e-240
0
0
0
0
0
0
0
0
0
0
0
0
0
1.46466e-122
0
1.95828e-140
4.30167e-189
0
0
0
0
0
1.34233e-65
0
0
0
1.77521e-111
0
3.62688e-08
1.24317e-56
0
6.80112e-193
5.57227e-54
8.61921e-109
2.17906e-36
3.76662e-55
0
0
0
0
0
0
0
0
0
6.55349e-170
0
0
0
0
6.09253e-165
0
1.16444e-139
0
4.34751e-169
0
0
0
0
0
0
2.46397e-310
0
6.24859e-88
0
2.34729e-149
0
0
6.50625e-308
2.6258e-287
0
0
0
0
6.00042e-189
3.7298e-145
0
0
6.27944e-145
1.44874e-163
1.02898e-138
2.53182e-123
1.07325e-125
0
1.5266e-199
0
0
0
2.32802e-190
0
5.58367e-202
0
2.12117e-231
0
1.6351e-193
0
0
0
3.70155e-193
0
3.85597e-176
0
6.88979e-206
0
0
0
2.81617e-321
0
2.55362e-74
0
3.27633e-194
0
0
0
0
0
0
1.98065e-126
4.04754e-64
3.54819e-59
2.22527e-31
0
2.86969e-198
0
2.04774e-190
0
0
0
0
7.70578e-285
1.71243e-68
0
6.88923e-209
1.13709e-213
0
0
5.11558e-195
0
0
0
6.28126e-174
2.40967e-183
2.82747e-200
0
0
0
1.81953e-287
0
0
0
0
2.09279e-208
0
1.82226e-146
0
0
0
0
0
0
2.66597e-125
0
5.65865e-268
8.45047e-42
2.58526e-100
0
0
5.38069e-170
0
0
2.11488e-100
3.89751e-148
0
0
0
0
0
0
0
0
0
0
0
0
0
1.61448e-147
6.03102e-181
0
0
1.29348e-34
3.69129e-163
0
0
0
0
2.95551e-108
0
0
1.06165e-24
1.52851e-224
0
0
0
0
2.27464e-50
0
0
2.9532e-155
0
0
0
0
4.39044e-143
0
0
0
3.15432e-94
3.09008e-95
0
0
0
2.68975e-54
0
0
0
0
0
7.92482e-209
0
0
0
0
0
0
0
5.24101e-110
0
0
0
0
0
0
0
1.89185e-60
0
0
0
0
0
0
0
3.74417e-148
0
0
0
5.01573e-138
0
2.14597e-141
5.53676e-174
0
0
0
0
0
0
0
0
5.90921e-313
0
4.93088e-149
0
0
0
2.18675e-205
0
1.03114e-118
0
0
0
0
0
0
0
0
0
3.48312e-68
0
0
0
0
1.01169e-125
0
0
0
0
0
0
3.52022e-118
5.94147e-51
0
0
0
0
0
1.05063e-286
1.90941e-169
0
1.86082e-150
0
0
0
2.68199e-164
1.1979e-208
0
7.16267e-223
0
0
2.29068e-132
0
0
0
0
0
1.76225e-299
0
3.55097e-49
0
0
0
3.14236e-11
0
0
0
6.99735e-53
0
0
3.33568e-69
4.01757e-64
0
0
0
3.50958e-77
0
0
0
0
0
0
2.90074e-243
5.04609e-141
1.47891e-131
7.23293e-158
0
0
0
0
0
2.91302e-136
8.83646e-121
0
3.04501e-139
0
0
2.2466e-80
0
0
0
0
0
0
1.33598e-163
0
2.02925e-126
0
2.36322e-13
0
0
1.06002e-43
0
3.06255e-123
6.20677e-222
1.2546e-137
1.62972e-239
0
0
1.43907e-135
0
0
1.5709e-20
2.44537e-141
9.8206e-297
0
8.26422e-70
0
4.84257e-31
0
2.50488e-132
0
0
3.32371e-83
1.15701e-73
0
0
4.14064e-179
0
0
3.13566e-130
0
0
0
2.54513e-154
0
6.43177e-218
0
1.43861e-154
0
3.26411e-109
2.42862e-134
0
0
0
1.32482e-108
2.61881e-230
4.77864e-109
0
0
0
0
0
0
0
0
0
0
0
5.05418e-50
0
0
0
1.97793e-230
0
0
0
0
0
3.8186e-215
0
0
3.39141e-126
0
3.67317e-81
0
0
0
1.77748e-87
0
1.6113e-174
0
2.08476e-100
0
0
0
0
0
0
4.83518e-99
1.05746e-145
1.99664e-121
0
4.88399e-144
1.53115e-115
0
0
0
1.62801e-106
0
0
0
0
0
0
0
3.37261e-155
0
0
9.69881e-98
0
0
1.88222e-93
0
1.03024e-68
0
0
0
0
0
0
3.81769e-43
0
0
0
1.36937e-70
0
0
0
0
0
0
0
0
0
7.71184e-61
0
0
0
0
0
0
0
2.84421e-66
0
1.97165e-150
0
0
0
0
0
0
0
0
0
0
0
0
5.91656e-64
0
0
4.61348e-54
5.72565e-22
0
1.41508e-120
1.35462e-40
0
0
2.92585e-128
0
0
0
0
0
0
0
0
0
0
9.71123e-253
2.57984e-124
0
2.36454e-37
0
0
0
0
0
0
0
0
0
0
0
6.20385e-109
0
0
7.70686e-305
2.0503e-307
0
2.66412e-45
0
0
0
0.000514839
0
0
0
0
4.45252e-147
0
0
8.83119e-94
0
0
0
0
0
0
0
0
0
1.02234e-98
0
0
0
0
0
3.09903e-43
0
0
0
0
0
0
0
2.52072e-154
0
0
1.03369e-268
0
1.05438e-97
0
5.56108e-104
0
4.42632e-193
8.82924e-198
0
0
1.66547e-61
0
0
3.36101e-111
1.81994e-273
3.50455e-270
6.42292e-151
0
0
0
9.55274e-297
0
0
0
0
0
0
0
0
7.15072e-53
3.63545e-46
0
0
0
0
8.51601e-103
2.39862e-199
0
0
9.12801e-57
4.07543e-63
7.17793e-67
0.0280482
0
0
3.40349e-48
0
0
0
0
0
0
7.28775e-32
0
0
0
0
0
0
0
0
0
0
0
0
0
0
0
1.31092e-129
0
0
0
2.05131e-75
0
1.07707e-43
3.53177e-41
0
0
0
2.9693e-35
0
0
0
7.13964e-34
0
0
0
0
0
7.37769e-59
0
3.20227e-43
0
0
0
0
1.15675e-49
0
0
0
0
3.38056e-180
3.437e-58
0
7.9879e-65
1.56227e-36
1.06913e-50
1.30465e-188
0
0
0
0
0
0
0
0
0
0
0
0
0
2.8872e-75
0
0
0
0
0
9.22017e-96
4.69447e-13
0
0
0
0
0
0
0
2.48715e-293
8.44552e-66
0
0
0
0
0
2.79048e-36
3.37966e-131
6.10247e-97
0
9.91392e-32
7.65248e-158
0
2.98916e-90
0
0
0
7.24624e-60
0
0
0
5.53677e-226
4.72244e-226
1.65779e-122
0
1.85924e-19
1.89685e-37
0
0
0
0
2.33388e-49
1.12417e-82
2.89161e-68
3.77082e-273
5.08685e-279
0
0
0
2.20807e-139
0
8.28952e-108
0
7.41253e-62
0
8.76924e-45
0
0
3.26083e-322
0
3.97317e-18
0
1.01576e-24
3.39385e-276
0
2.62231e-233
0
6.01893e-274
0
1.72901e-20
2.41964e-94
0
3.13286e-29
0
7.18874e-29
0
0
0
4.63607e-180
1.08405e-24
0
0
0
0
8.69103e-281
0
2.44565e-92
0
0
1.22699e-216
0
1.10905e-236
0
0
0
2.00476e-271
0
0
1.58775e-157
7.66833e-267
3.82084e-269
0
0
4.22152e-201
0
0
4.25917e-93
0
0
0
0
2.34945e-129
2.20376e-152
0
0
0
0
0
0
2.04102e-243
0
4.85942e-241
0
0
1.0612e-87
0
2.68674e-222
1.4822e-323
1.56552e-262
0
0
0
6.07985e-140
0
0
0
0
0
0
0
0
0
0
0
2.20437e-117
2.57644e-179
0
0
2.12014e-106
2.04073e-93
0
0
0
0
0
0
0
0
0
0
0
0
8.43521e-84
0
0
0
0
0
1.04839e-204
8.95283e-287
0
0
0
0
2.54137e-287
0
3.62103e-158
0
0
0
0
0
0
0
1.37504e-258
2.11009e-205
0
0
0
0
0
0
0
3.44884e-66
0
0
2.80535e-196
0
0
0
0
2.46773e-292
0
0
0
0
0
0
0
0
6.4154e-166
0
0
2.69401e-149
7.8194e-139
0
6.16639e-174
1.59496e-70
0
0
0
0
0
0
0
2.06391e-170
0
0
0
4.96638e-73
0
0
0
0
1.06562e-128
0
0
0
0
0
0
0
0
0
0
0
0
0
0
0
0
3.62021e-263
0
0
0
0
0
0
0
7.42602e-110
0
0
0
0
0
0
0
0
0
0
0
0
0
0
0
4.00146e-32
0
0
9.80528e-64
1.37218e-120
0
0
5.51603e-219
0
0
5.97914e-280
4.65589e-236
0
0
0
0
0
0
3.4141e-140
0
3.85162e-234
1.76504e-134
1.76033e-95
1.4565e-78
0
0
0
0
0
0
0
0
0
5.16461e-109
0
0
0
0
0
0
0
0
3.76544e-18
0
0
3.86351e-46
0
0
3.05574e-32
0
5.64486e-42
0
7.63423e-40
0
1.00927e-57
1.03967e-50
0
0
0
0
0
0
0
0
0
1.60775e-108
7.55179e-197
0
3.70868e-71
0
0
0
4.48616e-205
0
0
0
7.69853e-31
0
1.64491e-76
1.08956e-69
3.89944e-237
0
3.51186e-67
0
0
0
7.48635e-148
6.71711e-285
0
0
0
0
0
4.18208e-181
1.36802e-256
0
0
0
0
0
2.26335e-267
0
0
0
0
6.03877e-259
1.2667e-267
7.08232e-281
0
2.14451e-278
0
0
0
3.32511e-317
0
0
0
0
0
0
0
0
6.15436e-94
0
0
0
0
0
0
0
2.01193e-36
0
0
0
3.92208e-73
0
0
4.72281e-56
0
0
0
0
6.51284e-109
0
0
0
0
0
0
2.59501e-111
0
0
0
0
3.90716e-07
0
0
0
0
0
0
0
0
0
1.44083e-33
0
0
0
0
0
0
0
2.44653e-73
0
3.09557e-213
0
0
0
0
3.09131e-14
0
5.10084e-120
0
0
0
0
0
0
0
3.58474e-301
1.91611e-109
0
4.16252e-265
0
0
0
0
0
0
0
0
0
0
0
0
0
0
0
0
0
4.02922e-134
1.32861e-125
0
0
0
6.07255e-141
0
5.78425e-192
6.38663e-244
1.32697e-91
0
0
3.62757e-156
0
0
0
0
3.9915e-113
0
3.3248e-130
1.54938e-90
0
4.77971e-103
2.63106e-113
2.89247e-250
0
0
2.78348e-121
5.37708e-90
0
0
0
0
0
3.44866e-302
0
0
0
0
1.93841e-105
0
0
0
0
0
0
0
0
1.10317e-35
0
0
0
0
0
0
0
0
0
0
1.62212e-81
1.29827e-79
0
0
0
0
4.43697e-36
0
1.24831e-31
0
5.59084e-27
0
0
0
0
0
0
0
0
0
1.67192e-320
0
0
0
0
0
0
0
0
1.16595e-99
0
0
0
0
2.05203e-59
0
0
0
0
0
0
1.18966e-12
0
0
0
1.18795e-92
0
7.31253e-312
0
0
3.31024e-322
0
0
0
0
0
2.93242e-78
0
0
0
0
0
0
0
0
3.24744e-90
0
0
0
0
0
0
0
2.97308e-82
6.36712e-23
2.37758e-52
1.40818e-43
0
0
0
3.94043e-67
0
0
0
7.67811e-120
0
0
0
0
1.01447e-90
0
0
0
2.91637e-57
0
0
0
0
0
2.83235e-95
0
0
0
0
0
0
0
6.5007e-104
0
0
1.18669e-254
3.34626e-207
0
0
0
0
0
0
0
1.812e-211
0
0
0
0
0
0
0
0
0
2.60237e-190
0
0
0
0
1.21635e-274
0
0
3.95253e-323
0
0
0
0
0
0
0
0
0
0
0
0
0
0
0
0
0
0
4.5645e-213
0
0
0
0
0
6.55495e-246
2.18954e-287
3.05204e-319
0
0
0
2.4845e-198
0
0
0
3.79553e-203
1.21214e-311
0
1.75901e-207
0
0
0
0
0
0
0
0
0
0
1.24337e-263
2.75117e-135
6.83772e-257
0
1.33791e-275
0
0
0
0
0
0
0
0
0
0
0
0
0
0
0
0
0
0
3.57886e-215
0
0
0
0
0
0
0
0
0
0
9.70905e-211
0
0
0
0
0
0
0
0
0
0
0
0
0
0
0
0
0
9.56904e-224
0
0
0
1.77943e-187
0
1.73773e-253
4.61694e-176
0
0
0
0
4.80167e-315
2.83207e-236
3.57397e-204
8.42256e-162
6.48265e-184
6.07573e-284
0
0
0
0
0
3.58151e-181
0
0
0
0
0
0
0
0
1.19783e-180
0
0
0
8.35699e-193
0
0
0
0
0
0
0
0
1.52484e-230
0
0
0
0
0
0
0
5.86321e-289
0
0
0
0
0
2.4233e-302
0
0
0
0
0
0
1.85712e-272
0
2.92566e-280
0
0
0
1.26049e-293
0
0
5.95867e-291
0
0
0
0
7.39084e-256
2.27338e-280
3.40559e-320
0
0
0
0
8.29725e-278
1.02033e-201
0
0
0
0
0
0
5.32649e-198
0
0
0
0
0
7.96206e-101
0
0
0
0
1.69966e-195
4.37958e-286
0
0
0
1.85823e-191
0
1.28581e-221
0
1.4456e-121
0
0
0
0
0
0
0
0
6.66255e-277
0
0
3.68097e-285
0
0
8.53469e-307
2.15613e-152
0
1.30611e-199
1.21064e-250
0
0
2.35633e-231
0
0
0
9.33522e-220
0
0
3.77137e-252
0
4.54786e-263
0
0
0
0
0
0
0
0
2.90338e-319
0
0
0
0
0
3.17808e-288
0
0
0
4.4876e-320
1.64944e-257
0
0
0
0
2.0464e-274
0
0
3.30187e-317
0
0
0
0
0
4.53821e-227
0
0
0
0
0
0
0
0
0
8.08425e-302
0
0
0
0
0
0
0
0
8.10455e-64
0
0
0
0
0
0
0
1.68033e-292
3.14123e-287
0
0
9.16071e-311
1.72548e-261
0
9.13944e-258
9.38479e-246
0
1.90468e-290
0
0
0
5.58294e-321
0
0
0
0
0
0
0
0
8.52724e-187
9.39791e-279
6.51851e-259
0
0
0
1.23586e-260
0
0
0
0
0
0
0
0
0
3.09964e-260
0
0
0
0
0
0
0
0
1.91363e-284
4.94066e-324
1.29891e-252
1.67686e-282
0
0
0
0
0
0
0
0
0
0
0
0
0
0
0
6.03591e-251
0
0
1.90914e-285
0
0
0
0
0
0
0
0
0
0
0
0
0
0
0
0
2.16912e-199
3.61643e-277
2.64482e-251
0
0
4.19956e-321
0
0
0
0
0
1.63356e-284
0
0
0
0
0
0
0
0
0
0
0
0
0
8.1974e-285
0
0
0
4.47387e-294
0
0
0
0
0
0
0
0
0
0
0
1.32835e-191
4.86196e-293
0
0
0
0
6.13921e-312
0
3.46259e-312
0
0
0
0
0
0
6.08398e-195
0
0
0
0
0
0
0
0
0
1.45717e-74
0
0
0
0
0
0
0
0
5.44646e-297
1.0614e-301
0
4.24528e-215
0
2.40209e-310
0
0
6.58865e-298
1.27597e-156
0
0
4.72297e-313
1.17685e-124
0
0
3.50707e-185
0
0
0
7.06665e-282
0
3.05273e-299
0
0
0
0
0
0
1.10121e-244
0
0
0
0
0
2.79476e-217
1.5228e-261
0
0
2.43695e-313
8.60058e-311
0
0
0
0
0
6.22805e-194
0
0
0
0
0
0
0
0
0
0
3.42899e-266
0
0
1.87353e-267
0
1.19731e-142
0
0
0
9.88131e-324
0
0
3.42887e-73
0
0
2.55645e-264
0
0
0
0
2.35784e-305
0
0
2.73946e-207
0
0
1.88258e-178
6.98401e-255
0
0
0
2.42107e-226
0
0
6.46091e-215
0
8.00721e-173
2.0793e-256
0
0
7.12171e-304
0
0
0
0
0
8.96111e-103
0
0
0
0
0
0
0
0
0
0
0
6.50663e-285
0
0
0
0
0
1.59201e-291
0
9.08686e-250
1.52557e-244
0
0
1.16079e-178
0
0
0
0
0
0
0
1.7989e-200
0
0
0
0
0
0
0
0
0
2.12142e-161
0
0
1.80064e-313
0
1.07254e-193
9.51453e-231
0
6.4958e-202
1.73334e-166
0
0
0
3.89063e-287
0
0
0
0
0
0
0
0
0
0
0
0
2.60284e-176
0
0
2.20609e-180
0
0
0
8.74805e-164
0
2.07787e-181
0
0
4.90519e-16
7.68113e-25
0
7.98925e-100
1.42733e-21
1.36289e-163
0
0
0
0
3.75748e-204
0
0
0
0
0
0
0
0
0
0
0
0
0
0
6.23118e-231
0
2.5455e-218
0
0
0
0
0
0
0
0
0
0
0
0
0
0
0
0
0
0
0
0
0
0
0
6.74969e-248
0
0
0
0
0
0
0
0
0
0
0
0
0
0
0
0
0
0
0
0
0
0
0
0
0
2.17875e-262
0
9.49372e-263
0
0
0
0
0
0
0
0
0
0
0
0
0
0
0
0
0
0
0
0
0
0
0
3.01654e-204
0
0
0
0
2.25673e-306
1.90759e-310
1.01426e-309
5.85314e-307
0
0
0
0
1.44406e-289
0
0
0
0
0
0
3.1194e-170
0
0
9.2953e-280
0
3.66755e-280
0
1.03585e-208
3.66248e-282
6.92328e-09
1.22729e-08
1.57122e-148
0
0
1.23689e-154
5.5082e-267
1.25313e-262
0
0
0
1.03024e-139
0
1.2408e-100
0
0
0
0
8.16713e-08
0
6.84137e-10
2.75059e-206
0
0
0
0
4.27653e-262
0
0
0
1.63206e-09
0
0
0
0
0
0
0
0
0
0
0
0
0
0
0
0
3.49094e-09
0
0
0
0
0
0
0
0
0
0
7.79387e-08
0
0
0
0
0
0
0
0
0
0
0
0
0
1.09519e-200
1.09785e-59
2.95114e-15
0
0
3.8942e-199
0
1.07148e-48
0
0
2.88452e-136
0
1.47034e-158
0
1.73713e-151
0
0
8.66105e-80
1.09245e-91
0
2.49005e-89
0
1.21046e-320
0
0
0
9.51899e-88
0
1.20052e-167
0
3.4409e-85
0
1.35992e-69
0
0
0
0
0
1.68116e-309
0
0
1.73306e-159
0
0
0
5.51468e-83
0
0
0
0
0
0
0
0
0
0
0
0
0
0
0
0
0
0
0
0
5.93519e-90
0
0
7.7794e-85
0
0
0
0
0
0
0
0
0
0
3.15705e-12
4.89914e-143
0
2.26974e-09
0
3.23558e-13
0
2.86076e-43
0
0
2.07145e-12
0
0
0
2.44179e-174
0
0
1.71703e-217
0
0
0
0
4.09947e-195
3.4865e-255
0
0
0
0
0
1.17411e-200
0
3.49374e-153
0
0
0
0
0
1.06656e-205
5.4784e-200
0
0
0
3.03065e-200
5.51116e-203
2.66623e-259
2.16688e-205
0
0
0
0
0
0
0
0
0
0
3.26711e-181
0
0
5.78898e-184
0
0
1.05483e-189
0
0
0
0
0
0
3.34586e-177
1.06344e-135
0
0
6.67879e-109
0
0
0
0
0
0
0
0
0
3.09241e-35
0
0
0
0
0
0
0
0
0
0
1.47288e-175
0
0
0
0
0
0
0
0
0
0
1.07722e-14
0
5.24511e-44
0
0
0
0
0
0
0
0
0
0
0
3.35186e-231
0
0
0
0
0
0
0
0
0
0
0
0
0
0
8.03592e-180
1.28567e-177
6.23683e-176
1.00651e-101
3.56619e-71
0
0
0
7.47938e-66
0
0
3.51354e-173
0
0
0
0
1.7151e-308
0
0
0
0
0
5.1221e-318
0
0
0
0
0
0
1.94085e-290
0
0
0
0
0
2.31902e-197
0
0
0
0
2.17455e-237
0
0
5.77374e-239
4.66398e-321
0
0
3.28991e-86
0
0
6.97838e-151
6.19972e-267