/*--------------------------------*- C++ -*----------------------------------*\
| =========                 |                                                 |
| \\      /  F ield         | OpenFOAM: The Open Source CFD Toolbox           |
|  \\    /   O peration     | Version:  v2012                                 |
|   \\  /    A nd           | Website:  www.openfoam.com                      |
|    \\/     M anipulation  |                                                 |
\*---------------------------------------------------------------------------*/
FoamFile
{
    version     2.0;
    format      ascii;
    class       volScalarField;
    location    "0.5";
    object      CO2;
}
// * * * * * * * * * * * * * * * * * * * * * * * * * * * * * * * * * * * * * //

dimensions      [0 0 0 0 0 0 0];


internalField   nonuniform List<scalar> 
108993
(
3.15703e-184
0
0
6.49752e-100
1.86617e-129
0
0
8.48719e-171
9.08465e-42
2.07909e-224
0
1.70779e-114
7.7164e-109
0
4.70456e-191
0
0
0
0
0
4.79287e-163
0
0
3.57765e-174
4.45587e-108
0
0
0
0
0
7.30979e-17
6.31647e-163
1.14135e-28
0
9.50714e-92
1.27396e-144
0
4.04117e-119
0
0
0
0
7.83254e-181
0
0
0
1.3699e-26
0
0
0
0
2.01425e-294
0
3.14156e-30
1.61912e-233
2.95283e-166
4.97807e-35
9.12815e-113
2.19975e-87
0
0
5.84134e-99
1.49636e-133
0
0
0
4.12308e-117
7.27793e-105
0
2.95862e-259
0
6.20503e-111
2.14357e-115
2.73694e-110
0
1.30336e-16
0
0
0
0
7.38543e-116
3.51698e-198
0
0
0
1.0565e-172
0
2.16528e-124
2.9634e-120
3.58434e-117
1.27929e-108
3.6927e-18
0
1.12006e-131
0
2.08076e-161
9.34238e-20
6.53674e-97
4.08651e-18
3.48668e-20
0
2.54506e-78
3.67726e-164
0
0
0
4.38917e-125
0
1.86997e-72
0
0
0
0
0
1.04491e-63
0
0
0
0
0
0
0
0
6.36926e-92
0
3.84417e-173
0
1.18101e-118
0
4.35718e-74
0
0
0
7.51201e-281
0
1.98996e-64
0
0
8.95683e-129
0
0
8.11222e-12
1.46769e-209
0
1.70495e-71
0
0
0
1.03654e-89
0
0
0
0
0
9.83648e-69
0
0
4.06911e-52
0
0
0
6.18327e-41
1.568e-09
0
0
0
9.44009e-135
0
0
0
0
2.96598e-156
5.12777e-282
0
0
0
2.35669e-321
0
0
0
0
0
1.22884e-53
3.21688e-90
0
0
2.289e-63
0
0
1.56455e-93
0
1.2724e-49
3.16463e-109
0
1.93642e-72
0
0
7.62713e-113
1.22804e-99
4.21304e-88
5.77187e-129
0
0
0
0
0
0
0
3.22061e-69
0
0
2.2963e-116
1.03182e-318
0
0
0
0
2.6486e-48
3.2138e-48
1.83689e-32
0
0
0
0
0
0
0
0
0
0
0
0
0
0
0
3.85644e-31
0
5.88735e-82
0
3.61266e-45
6.09215e-14
5.67402e-54
1.81148e-152
4.00397e-49
4.7428e-54
3.63985e-160
0
0
2.46335e-43
0
0.00168448
0
0
2.96511e-76
6.88386e-57
0
0
1.76611e-100
0
0
1.69263e-38
0
3.74876e-165
0
3.6185e-56
0
1.67558e-34
0
0
2.19416e-65
1.15536e-143
0
0
0
0
4.35786e-63
1.52716e-15
0
0
0
0
0
0
0
3.12476e-55
0
1.24329e-104
0
0
0
0
0
0
2.45708e-26
0
0
0
2.04009e-32
1.00673e-250
0
0
0
0
1.87286e-149
0
0
0
0
0
0
0
0
1.13324e-184
1.90304e-137
0
0
0
0
0
0
0
0
0
0
0
0
0
0
2.42662e-34
1.61395e-106
0
0
0
0
0
2.32855e-158
4.6338e-48
0
0
0
0
0
0
0
0
0
0
0
2.98547e-52
0
2.19073e-31
0
0
0
0
3.04358e-100
0
0
0
0
0
0
8.41753e-55
0
0
0
0
3.98592e-53
4.15633e-169
0
0
3.84398e-149
4.90404e-58
0
0
0
8.48833e-142
6.38841e-49
0
0
0
0
0
0
8.71163e-205
0
0
2.16873e-295
0
0
0
0
0
0
0
0
0
0
1.646e-179
0
0
0
0
3.56885e-42
0
0
0
0
0
0
6.01743e-213
0
0
0
0
0
0
2.91823e-260
0
2.71388e-144
0
0
0
0
1.73548e-127
0
0
0
0
1.67715e-148
0
0
0
4.31947e-69
0
0
0
0
0
1.56557e-14
0
0
0
0
0
0
0
1.27761e-281
0
0
2.77696e-161
0
4.69454e-57
0
0
0
0
0
0
0
0
2.74626e-85
0
0
0
8.5936e-70
0
0
0
6.24633e-75
0
9.53103e-127
9.35979e-35
0
0
1.33613e-199
1.60736e-09
0
0
0
0
0
0
0
8.16058e-112
0
0
1.49544e-69
1.00357e-281
0
0
4.95973e-137
0
3.01665e-77
0
0
1.08469e-111
0
0
0
2.99648e-82
0
0
0
0
0
0
1.08709e-10
0
0
1.03093e-150
0
0
0
0
0
0
0
0
0
0
0
0
0
0
0
0
8.95504e-60
0
0
0
3.72889e-139
0
7.78928e-202
1.00943e-114
5.24197e-56
0
7.69315e-149
4.54908e-197
0
0
0
5.68064e-149
1.7798e-122
1.12664e-95
2.47051e-65
0
0
1.37874e-78
5.16087e-37
0
0
0
0
0
0
0
0
0
0
1.24384e-162
1.08645e-08
1.0873e-79
0
0
0
0
3.50648e-09
0
0
0
0
0
0
0
0
0
0
0
0
0
0
7.48362e-79
6.214e-86
3.07401e-150
7.50386e-207
0
0
0
0
0
3.26814e-167
0
0
0
0
2.51324e-40
2.36419e-170
0
2.36516e-210
6.91635e-66
1.63353e-115
0
5.16536e-179
0
0
0
4.49861e-176
7.70183e-164
6.43391e-93
0
1.05254e-99
8.79328e-225
0
0
1.86318e-56
0
1.54906e-173
0
0
1.88323e-315
0
0
0
0
9.73969e-101
0
0
0
0
0
0
0
0
1.25063e-147
0
0
0
7.16296e-198
0
7.04089e-244
0
3.01307e-43
0
0
9.81083e-151
2.84617e-146
0
0
0
0
0
0
0
4.53452e-266
0
7.51257e-206
0
2.99064e-278
0
0
0
9.29375e-169
1.04698e-28
0
0
0
5.93059e-169
0
0
3.47494e-174
0
0
0
0
2.37571e-104
0
0
0
0
0
0
0
2.49684e-153
0
0
0
0
0
0
5.73389e-47
5.09307e-74
1.49406e-304
0
0
7.29866e-279
0
0
0
0
0
0
0
0
0
0
0
0
0
0
0
0
0
0
0
1.27567e-120
0
2.08136e-196
7.41306e-147
0
0
2.67723e-144
0
1.82052e-160
0
0
0
0
0
0
1.50279e-306
8.34102e-147
0
0
5.15463e-144
1.78814e-144
0
0
0
0
0
0
0
0
0
0
1.77296e-139
1.67272e-137
3.26379e-145
0
4.27669e-143
0
0
0
0
0
0
0
1.56608e-181
0
0
0
0
1.92824e-117
0
0
0
0
0
0
3.34657e-118
0
0
0
0
0
8.40873e-121
0
0
8.00792e-185
0
0
4.7586e-121
2.21324e-125
0
0
0
0
0
0
1.02128e-34
0
7.28091e-25
7.03256e-87
0
0
0
0
0
5.54934e-138
0
1.73368e-177
0
0
4.92873e-170
2.69453e-20
0
6.71473e-215
0
0
2.8746e-99
0
0
0
0
6.44078e-222
0
0
0
0
0
8.09788e-205
0
0
0
0
0
2.60177e-235
0
0
0
0
0
0
2.83586e-242
0
8.50921e-107
8.37295e-279
0
4.61106e-110
0
0
0
0
0
0
0
4.28481e-149
0
0
0
8.18633e-130
0
0
0
0
0
0
1.10239e-150
0
0
0
0
0
0
0
2.48842e-130
2.45152e-202
3.28788e-158
7.65069e-197
1.20481e-102
3.55465e-59
2.67937e-188
0
9.4938e-55
0
0
0
0
0
0
0
0
0
0
2.44607e-235
0
0
0
0
1.71988e-86
0
1.71305e-177
0
0
0
5.61323e-133
0
0
2.21809e-109
0
0
0
6.17203e-233
0
4.9433e-157
0
0
0
0
1.60794e-164
3.0634e-192
0
0
3.03854e-251
0
9.04365e-249
0
0
0
6.62915e-191
9.84754e-148
0
0
0
0
0
0
0
0
0
0
1.57231e-269
8.3466e-207
0
7.70954e-173
3.03189e-65
0
7.94658e-168
0
0
0
0
0
0
0
0
0
0
0
0
2.21975e-168
0
0
0
0
0
5.92164e-176
0
4.11024e-168
0
0
0
5.62885e-318
4.02707e-197
6.5281e-185
0
0
0
0
2.07993e-193
0
0
4.68381e-22
0
2.49281e-196
4.61734e-07
0
0
1.32997e-198
1.1608e-119
9.06266e-78
1.54877e-112
0
0
5.76522e-110
0
0
7.42218e-121
2.7691e-119
8.07873e-215
1.02147e-89
0
0
0
0
0
0
0
3.74926e-279
0
4.07781e-117
5.16856e-126
0
0
0
0
1.43523e-114
0
2.89133e-149
0
4.21595e-208
0
0
3.3383e-120
1.09816e-117
1.73516e-140
0
0
6.95475e-186
0
0
4.75423e-32
0
1.46215e-90
0
0
4.25424e-93
0
0
0
0
3.05043e-91
0
0
0
0
6.54719e-50
0
0
6.37437e-153
0
0
4.93565e-205
5.20267e-153
1.36247e-61
0
0
0
0
0
3.12405e-182
0
0
0
0
4.75332e-149
1.46806e-138
0
0
5.20976e-318
0
0
1.75256e-142
0
0
1.58879e-105
0
0
1.82728e-187
7.09542e-190
5.16961e-210
7.97239e-274
3.88359e-271
0
0
0
0
0
2.28611e-112
3.44102e-171
0
0
0
6.369e-178
0
7.05347e-45
0
1.49414e-272
0
5.09836e-178
6.71751e-119
3.57304e-176
0
0
0
2.14157e-198
0
0
0
1.79596e-104
1.95172e-105
0
5.59341e-85
0
0
1.63688e-264
2.21726e-102
9.30109e-105
0
0
5.96802e-172
0
0
1.32656e-122
5.24969e-117
0
0
0
8.33185e-138
0
0
0
2.89365e-119
5.28461e-189
1.59002e-106
0
0
0
0
0
0
0
5.03041e-132
1.17249e-248
2.58004e-101
0
1.0157e-84
0
2.01617e-291
0
0
0
0
0
0
0
0
1.89278e-125
0
7.26117e-35
0
0
3.48511e-32
0
2.42899e-08
0
0
0
0
0
9.52625e-191
0
0
0
0
0
0
0
1.28028e-182
0
0
0
1.12261e-151
0
0
0
0
0
0
0
1.84089e-204
3.8081e-85
1.93918e-223
0
0
2.75537e-152
0
0
0
0
0
0
0
0
1.49786e-29
0
0
0
8.51477e-15
0
0
0
0
0
0
1.21941e-93
3.56156e-239
0
0
0
0
0
0
0
0
1.19583e-220
0
0
1.34153e-76
2.96633e-151
8.92652e-193
0
0
0
1.07791e-60
0
1.758e-104
0
0
0
0
0
0
0
0
0
0
0
3.87019e-147
4.65675e-170
0
0
0
0
9.62853e-215
1.72518e-154
0
0
0
0
0
0
4.48709e-138
0
0
0
9.37563e-254
0
1.36873e-105
1.07578e-187
2.89071e-134
0
0
0
0
0
0
0
0
0
0
0
0
6.44298e-132
5.04877e-42
3.83046e-34
0
9.10082e-54
0
0
0
0
2.73331e-112
0
0
0
0
0
0
4.96613e-310
0
0
0
0
0
0
0
0
0
0
0
0
0
0
1.3929e-151
0
0
1.398e-238
0
0
9.48172e-265
2.71476e-161
8.27123e-25
0
0
1.18952e-162
0
0
0
0
0
0
0
1.15476e-158
0
0
0
0
4.16626e-39
0
0
1.19941e-156
9.41317e-170
0
0
0
2.62314e-172
0
0
0
0
1.23535e-134
8.95436e-171
7.37598e-160
0
0
8.87328e-58
4.24975e-28
0
5.14868e-197
0
0
0
0
0
0
0
0
0
0
0
2.25111e-106
0
4.6604e-85
0
8.89468e-134
0
0
4.20215e-193
0
0
0
0
0
0
0
8.40931e-99
3.28173e-207
0
2.84242e-199
6.14674e-94
0
3.55955e-317
0
0
0
4.46779e-222
0
6.17421e-247
0
0
2.3129e-244
2.40884e-15
4.01276e-244
0
0
0
0
1.90521e-295
0
0
1.72272e-275
0
1.54458e-241
0
0
4.74482e-220
2.9472e-189
0
0
0
1.9369e-282
0
0
1.72728e-165
0
2.00787e-297
0
0
3.66587e-118
0
0
0
2.61566e-225
0
5.38648e-142
6.20603e-271
2.04099e-69
0
0
0.00298301
3.44118e-39
0
8.91674e-05
0
0
0
0
0
0
0
0
0
0
0
0
4.97987e-249
0
0
0
2.35799e-306
0
2.388e-140
0
0
0
2.19953e-146
0
0
0
0
0
0
0
0
6.93026e-146
1.23931e-121
0
0
0
0
1.03751e-298
0
5.53946e-128
0
0
0
3.77854e-96
0
0
5.28442e-124
0
2.43721e-108
0
0
2.20545e-200
0
0
0
0
1.44628e-308
0
2.02318e-145
0
9.08419e-42
4.91323e-75
1.66806e-66
0
0
1.05023e-188
9.46434e-223
0
0
0
0
0
0
2.78327e-59
0
0
0
0
0
0
0
0
0
0
0
0
0
0
0
0
0
0
0
0
0
0
0
0
0
0
0
0
0
0
0
0
0
3.03178e-147
0
0
4.43581e-50
0
0
0
0
0
6.19692e-166
0
0
0
0
0
3.50259e-110
0
0
0
0
0
4.84486e-180
0
0
0
0
0
1.39809e-163
0
0
0
7.45218e-250
0
2.48323e-206
0
0
2.23856e-161
0
0
0
1.77147e-72
5.92723e-187
0
3.70906e-300
0
4.90815e-286
0
0
0
0
0
0
0
0
1.20066e-168
0
0
0
0
0
0
0
4.40566e-124
1.47491e-263
0
0
0
0
0
0
0
0
0
0
0
0
0
0
1.10625e-109
0
0
3.27646e-182
0
2.49897e-52
0
0
0
0
0
0
0
0
0
4.51459e-277
0
0
4.16303e-204
5.82311e-226
0
0
0
0
0
0
0
4.94066e-324
0
0
0
0
0
0
0
0
0
0
9.48065e-209
0
0
0
4.103e-185
0
0
7.90198e-189
2.25925e-191
0
0
0
3.63403e-262
0
0
0
0
0
0
0
2.48539e-267
0
1.4242e-288
0
0
0
0
0
0
0
0
7.33624e-168
0
4.69545e-197
0
0
0
1.46331e-194
8.17767e-280
0
0
1.80281e-124
0
2.98738e-301
0
0
0
1.58767e-96
1.92494e-72
0
0
0
6.87728e-252
0
0
0
0
0
0
0
0
0
0
0
1.40715e-62
0
0
0
0
2.01265e-185
1.89601e-170
0
0
0
0
0
0
0
0
2.25111e-314
0
0
0
0
8.77299e-255
4.00403e-258
0
2.11141e-312
0
3.57949e-102
0
0
1.27771e-66
0
0
0
0
0
0
0
0
0
0
1.18227e-96
6.4744e-161
3.83394e-134
0
0
0
2.08061e-43
0
9.6225e-148
1.07773e-90
2.58232e-150
8.22604e-153
2.51973e-322
0
0
0
0
5.71165e-95
0
2.1697e-155
0
0
0
0
0
0
0
0
0
0
0
0
0
0
0
0
0
0
4.26124e-228
0
0
0
1.30342e-305
0
0
0
0
0
0
0
0
0
1.72272e-127
0
0
0
0
0
0
0
2.31514e-116
0
0
0
1.77559e-146
0
0
1.07194e-126
0
0
0
0
0
3.71419e-141
0
3.90508e-144
3.50168e-55
1.72286e-13
0
0
0
0
0
6.54526e-16
0
0
0
6.37252e-176
0
5.73608e-179
2.7138e-172
0
0
0
0
0
0
0
0
6.07108e-82
2.55984e-266
0
0
0
0
0
0
3.15686e-156
0
7.66555e-147
2.78998e-38
0
0
0
0
0
0
0
1.11955e-314
4.39417e-149
0
0
0
0
7.63727e-178
1.78762e-158
0
3.01975e-289
0
1.52818e-153
0
0
1.9496e-117
3.95221e-197
5.11546e-210
0
0
0
0
5.6931e-36
3.87044e-159
0
0
0
0
6.55205e-263
1.2622e-153
5.63507e-151
0
0
0
4.55726e-189
0
0
0
0
0
1.09261e-172
0
0
6.78699e-70
0
5.67313e-58
0
0
0
0
0
0
0
0
0
0
0
0
0
4.32284e-243
0
0
6.00891e-225
0
5.35185e-209
0
0
0
5.3192e-267
0
0
0
0
0
0
0
0
0
0
0
0
0
0
0
0
0
0
0
1.17761e-161
5.3017e-70
0
7.61225e-77
7.70543e-86
0
0
3.31549e-285
0
4.13636e-165
0
8.95081e-302
4.94066e-324
0
0
4.63314e-304
0
0
0
0
3.73759e-284
1.51223e-301
0
0
2.24753e-161
0
0
0
0
0
8.43405e-279
9.46771e-139
0
5.36765e-268
3.27329e-135
2.15916e-282
9.21906e-159
0
0
8.65683e-305
0
0
0
3.24399e-156
0
0
0
0
0
0
0
0
0
8.53561e-93
0
5.06313e-145
0
0
0
2.01878e-90
0
0
0
7.34927e-214
5.83827e-167
0
0
0
0
6.23266e-117
5.04148e-240
0
0
1.92402e-255
0
0
0
0
0
0
0
5.4032e-121
0
0
0
0
0
0
0
0
0
0
1.77131e-180
0
0
0
0
0
1.28193e-248
0
0
0
0
0
0
0
0
0
0
0
0
0
9.53131e-174
3.77993e-265
0
0
0
0
5.3854e-127
1.25404e-131
0
6.9915e-234
2.09011e-288
0
0
0
0
0
0
0
0
0
9.24242e-219
0
3.18257e-263
0
0
0
0
8.14965e-170
0
0
0
1.3695e-165
3.22652e-126
0
0
0
3.7086e-126
0
0
0
0
1.70437e-289
0
0
0
1.45496e-123
0
0
0
1.83996e-136
0
0
0
0
0
1.31683e-79
0
0
7.93236e-137
1.1024e-141
0
1.24205e-145
0
0
4.69154e-193
0
3.38671e-274
0
0
0
0
0
0
0
0
0
0
0
0
0
0
0
0
0
0
0
0
0
3.75532e-175
0
8.2468e-143
0
0
4.41557e-196
0
0
0
0
0
0
0
0
1.9471e-221
0
0
7.32558e-121
6.60346e-179
0
0
3.8947e-182
7.99986e-204
3.20363e-93
0
0
0
0
0
1.70814e-203
0
2.3756e-48
0
3.38375e-86
0
0
2.8765e-135
1.15624e-128
1.17503e-80
0
0
0
0
0
0
4.47593e-36
2.42844e-302
4.2673e-252
2.04536e-182
0
0
0
0
2.54232e-116
0
0
0
1.08953e-113
6.76573e-220
4.30477e-187
0
0
0
2.47639e-88
0
5.20978e-279
7.47678e-95
0
3.63729e-270
1.02974e-92
0
0
0
3.65851e-262
1.6756e-295
0
0
0
0
0
4.22829e-136
0
3.54646e-85
0
0
0
0
0
0
0
3.01835e-160
1.8872e-33
4.30329e-31
0
0
0
0
0
0
0
0
0
0
0
0
0
0
0
4.77617e-80
1.32402e-78
0
0
0
0
0
0
0
0
0
0
1.14854e-169
0
0
4.98654e-227
0
0
0
0
0
0
3.18935e-179
1.39144e-181
0
0
0
0
0
0
0
0
2.72299e-27
0
0
0
0
0
0
0
0
0
0
0
0
0
5.42502e-231
0
0
0
0
0
0
0
2.45939e-233
0
8.61889e-310
0
0
0
0
0
0
2.41058e-12
2.84722e-14
4.81783e-173
1.15552e-13
0
0
6.67008e-252
0
0
0
9.83045e-220
0
1.57453e-141
0
0
0
3.83133e-178
1.86959e-236
1.29894e-117
0
0
0
0
0
0
0
0
0
6.41634e-270
0
3.1035e-243
0
0
0
0
4.22499e-313
0
1.65287e-174
0
0
6.04941e-162
0
4.7089e-311
4.53433e-206
0
1.29912e-222
0
0
0
0
0
0
0
0
0
3.43428e-134
0
0
0
0
0
0
0
1.29889e-224
0
0
0
0
0
0
0
0
0
0
1.54676e-278
2.33365e-112
0
0
7.68905e-158
0
2.12503e-216
0
0
0
4.57255e-51
3.1031e-154
0
0
1.61914e-185
0
0
0
0
0
0
0
1.38111e-187
2.08172e-248
6.87456e-103
5.15506e-194
0
0
0
1.50993e-190
0
3.82464e-49
0
0
0
0
0
0
0
1.8323e-135
0
0
0
0
0
0
0
0
4.13453e-137
4.06672e-107
0
0
0
0
3.97095e-263
0
0
0
0
0
0
2.89289e-199
0
0
0
0
0
0
0
0
0
0
0
0
0
0
0
0
0
0
0
0
0
3.42695e-293
0
0
0
0
0
0
0
2.13938e-137
0
4.76586e-147
0
6.13129e-140
0
0
0
0
0
0
0
0
0
0
0
0
0
0
0
0
0
0
2.32211e-322
0
0
0
0
5.88708e-148
0
0
0
0
4.31799e-150
0
0
0
0
0
0
0
0
2.87555e-111
0
0
0
0
0
0
0
6.67849e-220
6.19507e-290
8.92378e-123
4.00601e-148
0
1.70682e-113
3.10552e-137
0
0
0
0
0
0
2.38203e-212
0
0
0
0
0
0
0
0
0
0
0
0
0
0
3.65703e-147
6.71832e-68
0
3.81646e-272
4.27464e-201
8.89318e-323
0
0
0
0
0
5.39799e-279
0
3.40214e-320
0
0
0
0
0
0
0
0
0
0
0
0
0
0
0
0
0
0
0
0
0
0
6.19699e-259
0
7.05409e-250
0
0
0
9.95116e-295
0
0
1.73634e-149
0
0
0
0
0
0
9.88533e-169
0
0
5.36266e-151
0
0
0
0
0
1.72815e-142
2.4606e-242
0
1.38816e-278
1.3223e-86
0
0
0
2.6242e-135
0
0
0
0
0
0
0
3.34667e-269
0
0
0
0
0
1.9394e-276
0
0
0
0
0
0
3.54228e-170
0
1.40076e-165
0
0
0
0
6.52023e-57
0
4.12456e-72
0
0
0
0
0
0
0
0
0
0
0
0
0
0
0
1.07676e-318
0
0
1.15371e-76
0
2.27979e-141
0
2.84433e-71
2.57835e-132
0
0
0
0
0
0
0
0
0
0
0
0
0
0
4.64591e-79
0
0
0
0
0
0
0
0
1.5839e-141
0
0
0
0
0
0
0
0
0
0
0
0
0
0
0
0
6.08307e-294
0
0
0
0
0
0
0
2.24232e-129
0
0
0
0
9.04433e-140
0
0
0
0
0
0
0
0
1.9929e-219
0
0
0
0
0
0
0
0
0
0
0
0
0
0
0
0
0
0
1.52364e-280
0
1.20493e-303
0
0
9.02616e-153
0
0
0
0
2.08804e-219
0
0
0
0
0
0
0
0
0
0
0
0
0
0
1.13469e-308
0
0
0
0
0
0
0
6.69079e-295
0
0
5.93963e-101
0
0
0
0
0
0
2.11879e-93
0
0
0
0
0
0
0
0
0
0
0
0
5.10916e-155
0
0
0
0
3.68407e-70
0
0
0
3.78888e-165
0
0
0
3.45055e-61
0
0
0
0
4.68549e-253
0
0
0
0
0
0
3.78726e-132
2.62957e-44
7.88176e-15
0
2.69765e-217
0
0
0
0
0
0
2.41522e-180
0
2.16126e-260
0
0
0
0
0
0
6.83227e-139
0
0
1.03977e-159
0
6.44115e-87
0
6.45912e-145
0
0
0
0
0
0
1.21174e-180
5.75841e-100
0
0
0
0
6.14631e-64
0
0
0
0
4.21468e-61
0
3.53981e-102
9.72449e-120
0
0
0
0
1.24901e-159
0
2.92336e-172
0
0
0
0
4.30592e-209
0
0
0
0
0
0
0
1.75213e-128
1.09574e-69
0
0
0
0
0
0
4.22021e-64
8.36521e-102
0
0
0
0
0
0
0
0
0
0
0
0
1.37816e-120
0
0
0
0
0
0
0
0
0
0
0
0
0
6.07306e-262
0
0
0
0
0
0
0
0
0
8.73848e-291
0
0
0
0
0
0
0
0
0
0
0
0
0
0
2.15551e-290
0
0
0
0
0
0
0
0
0
0
0
0
0
0
0
3.60404e-59
0
0
5.76923e-168
0
0
0
7.53783e-53
1.31347e-54
9.96035e-212
0
1.09935e-54
0
0
0
0
0
0
0
0
0
1.97551e-177
0
0
0
0
0
0
4.15684e-226
0
0
0
6.68959e-63
0
0
0
0
0
0
0
0
0
0
0
0
0
0
0
0
0
0
0
5.69833e-107
0
0
2.62322e-180
0
0
0
0
2.33557e-268
0
0
0
0
0
0
0
0
0
0
0
0
3.46467e-280
0
0
0
0
9.21714e-39
0
0
0
0
0
0
0
0
0
0
0
0
0
0
2.83341e-38
0
0
0
0
0
0
0
0
0
0
0
0
0
0
0
0
0
1.4822e-323
0
0
2.04109e-109
0
0
1.4747e-161
0
0
0
0
4.36496e-74
8.59544e-296
0
0
0
0
0
0
0
0
0
1.28614e-60
0
0
6.39498e-60
1.79111e-57
0
0
0
0
0
0
0
0
0
0
0
0
0
0
0
0
0
0
0
0
0
0
0
0
0
0
0
2.72205e-118
4.2392e-157
9.98561e-116
0
2.49499e-14
0
0
0
0
3.1222e-130
4.77513e-128
0
0
0
0
0
0
7.62152e-126
0
0
0
0
0
0
0
0
0
0
0
0
0
0
0
0
0
4.10841e-242
0
0
0
0
0
4.33732e-81
0
0
0
0
0
0
0
0
0
0
0
0
0
3.43249e-258
0
0
9.13363e-247
0
0
0
0
1.08471e-289
0
0
1.22088e-53
0
0
0
0
0
1.01468e-252
0
0
0
0
0
0
0
0
0
0
0
0
0
0
0
0
0
1.16677e-308
0
0
0
1.00307e-54
0
0
4.43216e-133
0
1.64146e-135
0
0
0
5.20398e-228
3.05686e-263
0
0
0
2.0106e-230
0
0
0
2.69746e-277
0
0
0
0
3.34055e-293
0
0
0
3.56591e-227
0
0
0
0
2.81689e-278
0
1.01789e-230
0
0
0
0
0
0
0
0
0
0
0
0
1.46243e-321
0
0
0
0
0
6.65297e-240
0
0
0
0
0
0
0
0
0
0
0
0
0
0
0
0
0
0
0
0
0
0
0
0
0
0
0
0
0
0
0
0
2.87279e-146
0
0
0
0
0
8.66164e-312
0
0
0
0
0
1.71835e-250
0
0
0
0
0
3.46158e-267
0
0
0
0
0
0
0
0
0
0
0
0
0
0
0
0
0
0
0
9.78877e-270
0
0
0
0
0
0
0
0
0
0
0
0
0
6.98806e-223
0
0
0
0
0
0
1.33398e-322
0
0
0
0
0
0
0
7.71024e-27
0
0
0
0
0
0
0
0
0
0
0
0
0
0
1.23501e-258
0
0
0
0
0
0
0
0
0
0
0
0
0
0
1.39157e-263
0
0
6.47122e-261
3.69598e-250
0
0
0
0
9.62417e-247
0
2.81784e-259
0
0
0
0
0
0
0
0
0
3.03335e-258
0
0
0
0
0
0
0
0
0
0
0
0
0
0
0
0
0
0
0
0
0
0
0
0
0
0
0
0
1.02252e-112
5.51064e-63
0
0
0
0
0
0
1.32929e-128
0
4.29727e-121
1.11204e-110
0
0
9.69942e-105
0
0
0
0
0
0
0
9.39181e-103
0
0
0
6.06431e-134
1.09956e-110
0
0
0
0
0
0
0
0
0
0
0
0
0
0
0
0
0
0
8.81331e-125
0
0
0
0
0
0
3.57541e-217
0
0
0
2.04111e-233
0
2.91398e-13
0
0
0
0
4.28184e-140
0
0
0
0
0
0
0
0
0
0
0
0
0
0
7.29769e-268
0
3.28991e-267
0
0
1.1865e-266
2.39204e-264
0
0
0
0
0
2.7274e-95
0
0
1.69144e-264
0
7.461e-262
0
1.6502e-125
0
0
9.2941e-280
7.55642e-297
0
0
0
0
0
0
0
0
0
4.73744e-24
1.20949e-314
0
0
0
0
0
0
0
0
5.05358e-209
0
0
0
0
0
0
0
0
0
0
0
0
0
0
0
0
0
0
0
0
3.6512e-191
0
0
0
4.64352e-149
2.15775e-187
0
0
0
0
0
5.54261e-185
0
0
0
0
6.76656e-253
0
0
0
0
0
0
0
0
0
0
5.69992e-233
0
6.28127e-251
0
0
0
0
0
0
0
0
0
0
0
0
0
0
0
0
0
0
0
0
0
0
8.25369e-210
2.22741e-220
0
0
0
0
0
0
0
0
0
0
0
1.90952e-133
0
0
0
0
0
0
0
0
0
0
0
0
4.73978e-252
0
3.9963e-249
0
0
0
0
0
0
0
8.83274e-285
0
4.3466e-272
6.05076e-87
0
5.03168e-88
0
0
0
0
0
0
1.85319e-85
0
0
0
0
0
0
0
0
0
0
0
0
0
0
0
0
0
0
0
0
0
0
0
0
0
0
0
0
2.90515e-277
0
0
0
0
0
0
0
0
0
0
2.21429e-285
0
3.19888e-310
0
0
1.0695e-228
1.20838e-274
0
0
0
0
0
0
0
1.55605e-303
0
0
0
0
4.23275e-267
0
0
0
0
0
0
0
0
0
0
0
0
0
0
0
0
0
0
0
0
0
0
0
0
0
2.7745e-217
0
0
0
0
0
0
0
0
1.02254e-260
4.55548e-148
2.53912e-267
1.01914e-264
0
0
0
0
0
0
0
0
0
0
0
0
0
0
0
1.30914e-311
0
3.77152e-217
0
0
0
0
0
0
0
0
0
0
0
0
1.26686e-214
0
0
0
0
0
0
0
0
0
0
0
0
0
0
0
0
0
0
0
4.01405e-230
0
1.19564e-321
0
0
0
0
0
0
0
0
0
1.26905e-90
0
0
1.76448e-77
2.24952e-42
0
0
1.83363e-123
0
1.27773e-227
0
5.27584e-195
0
0
1.66277e-190
1.17019e-218
0
4.24818e-152
0
0
1.7171e-174
2.66237e-117
1.50784e-122
0
3.29294e-130
0
0
0
0
5.96063e-107
0
3.58376e-182
0
0
0
0
1.00012e-171
0
0
0
0
0
0
4.91203e-221
0
0
2.14228e-162
0
7.25817e-213
0
1.69778e-152
0
5.71849e-156
0
0
1.27374e-171
0
0
3.69671e-196
7.21488e-244
0
0
1.54969e-153
1.16215e-196
0
0
1.15819e-194
3.12156e-145
2.04802e-200
1.50058e-48
6.58066e-99
0
5.51169e-60
0
0
6.18984e-146
2.37806e-187
0
0
0
0
0
2.61501e-68
0
0
0
5.85341e-112
0
3.34802e-09
0
0
0
6.09156e-56
4.95543e-111
4.1918e-37
2.38511e-52
0
0
2.10126e-320
0
1.67963e-209
0
0
0
1.80033e-143
4.15411e-172
0
0
0
0
1.20135e-164
1.15444e-70
4.46673e-135
3.38232e-163
8.39687e-168
2.23825e-61
0
1.97797e-121
0
0
0
1.91962e-306
0
6.09265e-84
0
2.09014e-152
0
0
5.06889e-304
0
0
0
0
0
5.40167e-192
4.38604e-143
0
0
0
1.68959e-164
1.97178e-132
3.54875e-121
6.52881e-123
0
4.27602e-202
0
0
3.85863e-123
0
0
3.29262e-200
0
0
9.77989e-197
2.10163e-191
0
0
0
2.59572e-191
0
3.62388e-174
0
8.05063e-202
9.65693e-262
0
0
3.5733e-315
0
3.95884e-76
1.02242e-260
3.09476e-192
0
0
0
0
0
0
1.2014e-125
0
3.90488e-61
0
0
0
0
1.20876e-187
0
0
0
0
5.74281e-278
1.41801e-69
0
2.87194e-210
4.0286e-211
0
0
6.60632e-197
0
0
0
0
2.14747e-185
4.63468e-202
0
2.222e-172
2.39869e-320
0
0
0
0
3.36492e-86
0
9.35486e-63
1.2185e-145
4.05298e-127
0
0
0
0
0
7.29758e-126
0
2.44278e-267
3.97451e-43
4.87855e-101
0
0
2.89347e-169
3.38323e-174
0
1.10845e-100
1.84319e-150
0
0
0
0
0
0
0
0
0
1.56287e-185
0
0
0
3.02872e-143
0
6.30216e-111
0
1.13048e-35
7.27968e-160
0
0
0
0
1.35996e-111
0
0
6.27366e-26
5.52355e-225
0
0
0
1.04326e-88
1.96868e-51
1.14773e-109
0
8.30667e-157
0
0
0
0
7.83422e-144
1.02091e-97
0
0
6.53534e-97
0
0
0
0
5.75423e-55
0
0
0
0
0
0
0
0
0
0
0
9.52954e-173
0
9.95934e-111
0
0
0
0
8.03639e-111
0
0
1.07573e-58
1.28841e-142
0
0
0
8.9574e-134
0
0
1.56996e-150
0
0
0
7.41062e-134
0
4.58247e-139
4.06733e-177
0
0
0
0
0
0
0
0
7.2981e-307
1.17033e-221
1.02997e-150
0
0
0
8.32701e-206
0
2.31785e-121
2.32182e-92
0
0
0
0
0
0
2.74156e-109
4.8219e-84
1.1448e-69
3.03744e-152
0
0
0
1.71062e-126
0
0
0
0
0
0
4.54649e-121
4.64105e-54
0
0
0
0
0
2.18202e-287
2.18233e-167
1.51421e-141
3.50741e-140
3.88896e-309
0
2.72271e-301
3.31526e-165
0
0
1.7513e-214
0
0
2.22951e-131
0
0
7.4268e-104
0
0
0
0
1.10486e-50
2.05946e-306
0
0
2.19801e-12
0
1.32193e-112
1.02906e-117
1.77177e-54
0
3.32103e-59
0
3.61277e-65
0
0
0
7.74051e-79
0
0
0
0
2.87006e-174
0
0
0
0
0
2.06062e-265
0
0
8.22385e-119
0
3.00605e-139
0
0
7.88819e-142
0
0
0
0
3.46265e-58
0
0
0
0
2.92002e-154
0
3.44881e-124
6.72999e-107
1.97488e-14
0
0
8.7144e-45
0
1.99779e-120
3.06949e-221
7.57505e-138
0
7.70714e-157
0
3.4404e-138
0
0
8.83454e-22
0
0
2.2456e-37
0
0
2.20982e-32
0
1.39715e-134
0
0
1.1293e-78
3.19288e-76
6.9369e-79
0
0
0
0
2.63633e-128
0
1.36776e-88
0
7.92292e-156
0
3.83785e-216
0
1.64771e-150
0
1.32864e-108
0
0
0
4.67262e-109
0
2.49819e-229
0
0
0
0
0
7.07126e-88
0
0
0
2.80601e-58
0
0
0
0
0
0
4.26573e-230
0
0
0
0
0
0
0
3.59809e-106
0
0
9.47186e-82
0
0
5.84095e-120
0
0
0
0
6.87144e-100
0
0
0
0
0
0
2.24036e-91
1.47902e-142
1.06325e-119
9.35575e-145
3.93861e-147
0
0
0
0
1.08616e-101
0
0
5.89848e-116
0
7.19875e-120
0
0
9.40295e-151
0
0
3.22397e-97
0
0
0
0
3.01828e-69
0
1.5642e-67
0
0
0
0
1.26911e-44
0
0
0
2.17805e-70
0
0
0
0
0
0
0
0
0
8.71906e-63
0
0
0
0
0
0
7.68606e-144
7.9639e-67
0
1.45313e-151
0
0
0
0
0
0
7.42831e-57
0
4.78608e-106
0
0
0
1.68467e-64
0
0
1.25408e-55
1.39419e-22
0
2.95008e-123
4.17939e-41
1.1974e-40
0
9.50661e-126
0
0
0
0
0
0
1.06519e-131
0
0
0
4.5745e-253
0
0
3.43308e-38
0
0
0
0
0
0
0
0
0
9.57139e-142
0
2.01501e-109
0
0
2.28488e-290
6.07858e-293
0
6.03532e-47
0
0
0
4.31332e-05
0
0
0
0
8.98144e-150
0
0
0
0
0
0
0
0
0
0
0
0
3.02138e-98
0
0
0
0
0
3.39489e-44
0
0
1.75583e-84
0
0
0
0
2.01532e-156
0
0
2.44949e-272
0
4.05212e-100
8.88891e-277
1.04965e-101
0
1.11294e-190
2.9547e-195
0
0
1.45694e-62
0
0
7.469e-114
1.11712e-256
0
3.58128e-150
0
0
1.07515e-132
0
0
0
0
0
0
0
1.44395e-142
0
2.31843e-54
9.6862e-48
0
0
0
0
1.2761e-103
8.65999e-200
0
0
9.62673e-59
2.59325e-64
1.47945e-68
0.00201321
0
0
4.8346e-48
0
0
0
0
0
0
1.60227e-32
0
0
0
0
0
0
0
0
0
0
0
0
0
0
0
0
0
0
0
0
0
0
0
0
0
0
7.52223e-37
0
8.91804e-65
0
8.4782e-35
0
0
0
1.78128e-112
0
1.58866e-59
0
0
0
0
0
0
3.60914e-51
0
4.34602e-285
1.62831e-112
0
0
2.75186e-57
0
2.00251e-66
6.25825e-38
5.77735e-52
0
0
0
0
0
0
0
0
0
2.25138e-32
0
3.38749e-89
2.88709e-58
0
0
0
0
0
0
0
4.34618e-98
5.08003e-14
0
0
0
0
0
0
0
0
1.27796e-68
0
0
0
0
0
9.31763e-38
5.46506e-132
0
0
1.53891e-32
6.98473e-159
0
4.73398e-88
0
0
0
8.80317e-60
0
0
0
2.5745e-224
2.19599e-224
4.57106e-121
0
4.12133e-20
7.0117e-39
0
0
0
1.98523e-104
1.29007e-52
0
1.94196e-69
1.44192e-264
1.37253e-276
0
0
0
3.28417e-135
0
1.70652e-107
0
3.76247e-63
6.76268e-300
0
1.99624e-68
0
2.47033e-322
0
2.53779e-19
0
3.48152e-25
0
0
1.28352e-233
2.74865e-35
5.76047e-283
0
1.29093e-21
0
0
1.45503e-30
0
1.56442e-28
0
0
0
8.20664e-178
6.76298e-26
0
0
0
0
0
0
0
0
0
3.13172e-213
4.67684e-186
5.15852e-235
0
0
0
1.91918e-280
0
9.87613e-148
7.63124e-153
7.51575e-276
3.70337e-278
0
0
4.54753e-200
0
7.54677e-88
2.13767e-91
0
9.6803e-262
0
0
1.02461e-125
4.04972e-152
4.93533e-153
0
0
9.74298e-156
2.93682e-145
0
0
0
1.90155e-253
0
0
8.97853e-89
0
5.52041e-223
0
1.13157e-264
0
0
0
4.69456e-143
0
0
0
0
0
0
0
0
0
0
0
0
4.2264e-177
0
0
3.96987e-99
6.18303e-95
0
0
0
0
0
0
0
0
0
0
0
0
0
0
0
0
0
0
3.13502e-202
0
0
0
0
0
4.5391e-290
9.86765e-216
2.39693e-163
7.6916e-169
0
0
0
0
0
0
9.56511e-262
0
0
0
0
0
4.82662e-296
0
0
2.58394e-64
0
0
7.0542e-194
0
0
0
3.06191e-93
0
0
0
2.36724e-177
0
0
0
7.05812e-165
0
5.85823e-171
0
0
5.44842e-143
0
0
3.68991e-175
0
0
0
0
0
0
0
0
6.86302e-173
0
0
0
6.23891e-74
0
0
9.10184e-262
5.05196e-245
1.89788e-129
0
0
0
0
0
0
0
0
0
0
0
0
0
0
0
0
2.61778e-258
0
4.63651e-261
0
0
0
0
0
7.61369e-112
0
0
0
0
0
0
0
0
0
0
0
0
0
0
0
1.0844e-29
0
0
0
3.01474e-117
0
0
2.56688e-216
0
0
3.34258e-277
1.16065e-230
0
0
0
0
0
0
1.21527e-138
0
1.7915e-232
5.51443e-132
1.52769e-98
3.86989e-79
0
0
0
0
0
0
0
0
0
1.84597e-111
0
0
3.65324e-136
0
0
0
0
0
3.66233e-19
0
0
0
0
0
1.26972e-33
0
1.96292e-43
0
0
0
1.9434e-60
1.25226e-45
0
0
0
9.88131e-324
0
0
0
1.25263e-288
0
9.73155e-107
0
9.04024e-64
0
0
0
0
0
0
0
0
1.96066e-32
1.62915e-70
0
4.59235e-71
1.81804e-235
0
4.11593e-68
0
0
0
1.16064e-144
5.77745e-283
0
0
0
0
3.4032e-95
5.17467e-178
0
0
1.41805e-202
0
0
0
3.77866e-268
0
0
0
0
0
2.48577e-268
1.47432e-281
0
4.4642e-279
0
0
0
4.21522e-311
0
0
0
0
0
0
1.14172e-82
0
1.55584e-95
0
0
0
0
0
0
0
2.85446e-37
0
0
0
1.61309e-74
0
0
5.35933e-55
0
0
0
0
3.90165e-111
0
0
0
0
0
0
3.26979e-107
0
0
0
0
3.19915e-08
0
0
0
0
0
0
0
0
0
4.75722e-35
0
0
0
4.13034e-215
0
1.96069e-217
0
2.06735e-75
0
3.11721e-215
0
0
0
0
2.53056e-15
0
1.06954e-120
0
0
0
1.24139e-170
0
4.47038e-224
0
4.42774e-295
9.11206e-112
0
1.70094e-263
0
0
0
0
0
0
0
0
0
0
0
0
0
0
0
0
0
7.62737e-137
0
7.64069e-172
0
7.76988e-186
0
0
0
7.44082e-247
0
8.50505e-226
0
4.09366e-154
1.74953e-129
1.03707e-201
0
0
4.00321e-109
4.2776e-67
4.46867e-131
0
1.8669e-109
1.00875e-99
0
4.57358e-242
0
0
7.14927e-115
2.41872e-90
0
0
0
0
0
4.26104e-296
2.99775e-244
0
0
0
3.55378e-102
0
0
0
2.93864e-269
0
0
0
0
1.855e-36
0
0
0
0
0
0
0
0
0
0
3.50586e-83
0
0
0
0
0
1.73081e-37
0
7.96962e-33
0
2.35528e-28
0
0
0
0
0
1.00033e-138
0
0
0
2.12158e-314
0
0
0
0
0
0
0
0
4.20321e-101
1.13144e-68
0
0
0
4.43193e-58
0
3.90158e-83
0
0
0
0
2.88577e-10
0
0
0
4.68642e-93
0
9.27598e-306
0
0
4.22956e-316
0
0
0
2.89176e-104
0
1.11718e-79
0
0
0
0
0
0
0
1.47328e-69
0
3.97627e-161
0
1.50714e-70
0
0
0
0
2.5972e-74
3.21787e-24
0
2.56305e-42
0
0
0
2.57749e-69
0
0
0
5.10959e-118
0
0
0
0
4.88841e-92
0
0
0
1.26244e-56
0
5.0027e-41
1.26731e-109
0
0
1.1502e-93
0
0
0
0
0
0
0
2.16777e-96
0
5.42774e-226
3.377e-257
1.21227e-207
1.15301e-238
0
0
0
0
0
2.57199e-241
7.12371e-209
0
0
0
0
0
0
0
0
0
2.60437e-194
0
0
0
0
0
0
1.12906e-293
1.7493e-292
0
0
0
0
0
0
0
0
0
0
0
0
3.40376e-257
0
0
0
0
0
1.65283e-213
0
0
0
0
0
9.37712e-237
4.54683e-288
1.64621e-295
0
0
0
4.20877e-196
0
3.23831e-302
0
1.75933e-204
0
0
7.27334e-211
1.71794e-283
1.5316e-322
0
0
0
0
0
0
1.00994e-291
0
5.84892e-264
2.31007e-134
3.21742e-257
9.13282e-212
0
1.60761e-224
0
0
0
0
0
0
0
0
0
3.0548e-220
0
0
0
0
0
0
0
8.37784e-213
0
0
0
0
0
0
0
0
0
0
4.91813e-210
0
0
0
0
0
0
0
0
0
0
0
0
0
0
0
0
0
5.90489e-222
0
8.98854e-320
0
4.48028e-185
0
0
2.24969e-171
0
0
0
6.56432e-241
0
4.26865e-237
7.46075e-203
1.28485e-158
1.62968e-181
1.27445e-284
0
0
0
5.69399e-210
0
3.1918e-183
0
0
0
0
9.49669e-318
0
3.38553e-271
0
1.33849e-177
0
4.57515e-273
0
0
0
0
0
0
0
0
0
2.75059e-202
5.51046e-231
0
0
0
0
0
0
0
1.22497e-281
0
0
0
0
0
1.87816e-298
1.09421e-306
2.06688e-299
0
0
0
0
0
0
0
0
0
0
0
0
0
0
0
0
0
0
4.51844e-259
2.11195e-268
0
0
0
0
0
0
5.5809e-202
0
0
0
0
0
0
4.04673e-198
0
3.40434e-195
0
0
0
0
0
0
0
1.92686e-322
8.81206e-196
8.55613e-290
0
0
0
4.67164e-189
0
4.77181e-213
0
8.50348e-122
1.37954e-266
0
0
5.38189e-270
0
0
0
3.27762e-226
5.76655e-276
0
0
0
0
0
1.79355e-280
0
0
3.28359e-197
0
0
0
3.551e-232
0
0
0
3.84868e-219
0
0
0
0
0
0
0
0
0
0
0
2.13436e-321
0
5.03947e-322
0
0
3.311e-304
0
0
6.60434e-289
0
3.50254e-295
0
5.70683e-314
2.22739e-260
0
0
0
0
1.09133e-279
0
0
7.16148e-320
0
0
0
0
0
4.02047e-225
0
0
0
0
0
0
0
0
0
9.98668e-296
0
0
8.46564e-297
0
0
0
0
0
1.28268e-66
0
0
0
0
0
0
0
3.48981e-293
0
0
0
1.16748e-304
9.66514e-264
0
1.3817e-273
0
8.60465e-320
0
0
0
0
0
0
0
0
0
0
0
0
0
2.26738e-184
2.12796e-279
1.33531e-257
0
0
0
3.31361e-263
0
0
0
0
0
0
0
0
0
1.33779e-259
0
0
0
0
0
0
0
0
3.12831e-278
0
1.83158e-256
7.55474e-285
0
0
0
0
0
0
0
0
0
0
0
0
0
0
0
8.79345e-247
0
0
5.81714e-288
0
0
0
0
0
0
0
0
0
0
0
0
0
0
0
0
1.24608e-196
7.51081e-278
1.39517e-249
0
0
5.32711e-315
0
0
0
0
7.49817e-288
3.39257e-285
2.18714e-214
0
0
0
0
0
0
0
0
0
0
0
0
6.58812e-281
0
0
0
0
0
0
0
0
0
0
0
0
0
0
0
1.57557e-194
1.15324e-290
0
0
0
0
1.82011e-297
0
2.48998e-293
4.61395e-296
0
0
8.05374e-73
0
0
4.05009e-201
0
0
0
0
0
0
0
0
5.37621e-303
2.58268e-70
0
0
0
2.68139e-272
0
0
0
8.37148e-304
1.61257e-290
7.74195e-287
0
1.3229e-205
0
5.08409e-313
0
0
7.16866e-277
1.42578e-153
0
0
5.9911e-307
9.11438e-121
0
0
4.33609e-182
0
0
0
1.46764e-282
0
3.76986e-293
0
0
1.4459e-255
0
0
0
5.11878e-243
3.65062e-303
0
0
0
0
5.46837e-217
9.35654e-265
0
0
3.09097e-307
1.09088e-304
0
0
0
0
0
2.24316e-194
0
0
0
0
0
0
0
0
0
8.73918e-224
1.92072e-268
0
0
0
0
0
0
0
0
0
0
0
4.60077e-73
0
0
1.20258e-264
0
0
0
0
1.83694e-301
0
1.68877e-295
9.94544e-208
0
0
0
0
0
0
0
6.33101e-228
0
0
3.01064e-213
0
8.95428e-170
0
0
0
8.79555e-298
0
0
0
0
0
0
0
0
0
0
0
0
0
4.22225e-183
0
0
0
0
6.14348e-282
0
0
0
0
3.13151e-283
0
3.5087e-249
0
4.4246e-264
0
8.87481e-175
0
0
0
1.73409e-278
0
0
0
4.41079e-201
0
0
0
0
0
0
2.80072e-236
0
0
2.37046e-158
0
0
1.34654e-280
0
2.95208e-191
1.10793e-231
0
1.63302e-199
1.93867e-163
0
0
0
8.11684e-283
0
0
0
0
0
0
0
0
0
0
0
7.24179e-143
0
0
0
5.55148e-178
4.06962e-124
0
0
0
0
1.95096e-179
7.85939e-145
0
3.89448e-17
3.28567e-25
0
3.31132e-99
1.52473e-22
1.52455e-160
0
3.87021e-220
0
0
2.17591e-201
0
0
7.79398e-202
0
0
0
0
0
0
0
0
0
0
0
9.63948e-232
0
0
0
0
0
0
0
1.09779e-318
0
0
0
0
0
5.41832e-259
0
0
0
0
0
0
0
0
0
0
0
0
0
1.44145e-265
0
0
0
0
0
0
0
0
0
0
0
0
0
0
0
0
9.19433e-264
0
0
0
0
0
0
1.22041e-264
0
5.31784e-265
0
0
0
0
0
0
0
0
0
0
0
0
0
0
0
0
0
0
0
0
0
2.03541e-294
0
0
0
0
0
0
2.86183e-300
2.41978e-304
1.28659e-303
7.42472e-301
0
0
0
0
0
0
1.01505e-263
9.87684e-87
0
0
0
0
0
2.58338e-143
3.05221e-272
8.31077e-56
0
0
1.01739e-202
8.50011e-280
8.41459e-10
1.16121e-09
5.42575e-146
0
0
0