/*--------------------------------*- C++ -*----------------------------------*\
| =========                 |                                                 |
| \\      /  F ield         | OpenFOAM: The Open Source CFD Toolbox           |
|  \\    /   O peration     | Version:  v2012                                 |
|   \\  /    A nd           | Website:  www.openfoam.com                      |
|    \\/     M anipulation  |                                                 |
\*---------------------------------------------------------------------------*/
FoamFile
{
    version     2.0;
    format      ascii;
    class       volScalarField;
    location    "0.5";
    object      H2O;
}
// * * * * * * * * * * * * * * * * * * * * * * * * * * * * * * * * * * * * * //

dimensions      [0 0 0 0 0 0 0];


internalField   nonuniform List<scalar> 
108993
(
2.58463e-184
0
0
5.31947e-100
1.52781e-129
0
0
6.94839e-171
7.43752e-42
1.70214e-224
0
1.39815e-114
6.31735e-109
0
3.85159e-191
0
0
0
0
0
3.92388e-163
0
0
2.92899e-174
3.64798e-108
0
0
0
0
0
5.98446e-17
5.17124e-163
9.34411e-29
0
7.78341e-92
1.04298e-144
0
3.30847e-119
0
0
0
0
6.41243e-181
0
0
0
1.12152e-26
0
0
0
0
1.64905e-294
0
2.57196e-30
1.32556e-233
2.41746e-166
4.0755e-35
7.47313e-113
1.80092e-87
0
0
4.78225e-99
1.22505e-133
0
0
0
3.37553e-117
5.95837e-105
0
2.42219e-259
0
5.08e-111
1.75493e-115
2.24071e-110
0
1.06705e-16
0
0
0
0
6.04639e-116
2.87932e-198
0
0
0
8.64947e-173
0
1.7727e-124
2.42611e-120
2.93446e-117
1.04734e-108
3.02318e-18
0
9.16981e-132
0
1.7035e-161
7.64853e-20
5.35157e-97
3.34559e-18
2.85451e-20
0
2.08362e-78
3.01054e-164
0
0
0
3.59338e-125
0
1.53093e-72
0
0
0
0
0
8.55459e-64
0
0
0
0
0
0
0
0
5.21445e-92
0
3.14719e-173
0
9.66879e-119
0
3.56718e-74
0
0
0
6.15002e-281
0
1.62916e-64
0
0
7.33288e-129
0
0
6.6414e-12
1.20159e-209
0
1.39582e-71
0
0
0
8.48604e-90
0
0
0
0
0
8.05304e-69
0
0
3.33135e-52
0
0
0
5.06219e-41
1.28371e-09
0
0
0
7.72851e-135
0
0
0
0
2.42822e-156
4.19806e-282
0
0
0
1.92686e-321
0
0
0
0
0
1.00604e-53
2.63363e-90
0
0
1.87398e-63
0
0
1.28089e-93
0
1.0417e-49
2.59086e-109
0
1.58533e-72
0
0
6.24427e-113
1.00538e-99
3.44918e-88
4.72538e-129
0
0
0
0
0
0
0
2.63668e-69
0
0
1.87996e-116
8.44749e-319
0
0
0
0
2.16839e-48
2.63111e-48
1.50385e-32
0
0
0
0
0
0
0
0
0
0
0
0
0
0
0
3.15724e-31
0
4.81992e-82
0
2.95765e-45
4.98759e-14
4.64527e-54
1.48304e-152
3.27802e-49
3.88289e-54
2.97991e-160
0
0
2.01672e-43
0
0.00137907
0
0
2.42751e-76
5.63575e-57
0
0
1.4459e-100
0
0
1.38574e-38
0
3.06908e-165
0
2.96244e-56
0
1.37179e-34
0
0
1.79634e-65
9.4588e-144
0
0
0
0
3.56774e-63
1.25027e-15
0
0
0
0
0
0
0
2.55822e-55
0
1.01787e-104
0
0
0
0
0
0
2.01159e-26
0
0
0
1.6702e-32
8.24203e-251
0
0
0
0
1.53329e-149
0
0
0
0
0
0
0
0
9.27772e-185
1.558e-137
0
0
0
0
0
0
0
0
0
0
0
0
0
0
1.98665e-34
1.32133e-106
0
0
0
0
0
1.90636e-158
3.79365e-48
0
0
0
0
0
0
0
0
0
0
0
2.44418e-52
0
1.79353e-31
0
0
0
0
2.49176e-100
0
0
0
0
0
0
6.89136e-55
0
0
0
0
3.26324e-53
3.40275e-169
0
0
3.14703e-149
4.0149e-58
0
0
0
6.94932e-142
5.23013e-49
0
0
0
0
0
0
7.13214e-205
0
0
1.77552e-295
0
0
0
0
0
0
0
0
0
0
1.34757e-179
0
0
0
0
2.92178e-42
0
0
0
0
0
0
4.92642e-213
0
0
0
0
0
0
2.38913e-260
0
2.22183e-144
0
0
0
0
1.42082e-127
0
0
0
0
1.37307e-148
0
0
0
3.53632e-69
0
0
0
0
0
1.28172e-14
0
0
0
0
0
0
0
1.04596e-281
0
0
2.27347e-161
0
3.84338e-57
0
0
0
0
0
0
0
0
2.24834e-85
0
0
0
7.03551e-70
0
0
0
5.11382e-75
0
7.80297e-127
7.66278e-35
0
0
1.09388e-199
1.31593e-09
0
0
0
0
0
0
0
6.68099e-112
0
0
1.2243e-69
8.21615e-282
0
0
4.06048e-137
0
2.46971e-77
0
0
8.88025e-112
0
0
0
2.45319e-82
0
0
0
0
0
0
8.89994e-11
0
0
8.44016e-151
0
0
0
0
0
0
0
0
0
0
0
0
0
0
0
0
7.33141e-60
0
0
0
3.05281e-139
0
6.37702e-202
8.26413e-115
4.29156e-56
0
6.29832e-149
3.72429e-197
0
0
0
4.65069e-149
1.45711e-122
9.22371e-96
2.02259e-65
0
0
1.12876e-78
4.22516e-37
0
0
0
0
0
0
0
0
0
0
1.01832e-162
8.89468e-09
8.90161e-80
0
0
0
0
2.87073e-09
0
0
0
0
0
0
0
0
0
0
0
0
0
0
6.12678e-79
5.08735e-86
2.51666e-150
6.14335e-207
0
0
0
0
0
2.6756e-167
0
0
0
0
2.05757e-40
1.93554e-170
0
1.93634e-210
5.66235e-66
1.33735e-115
0
4.22884e-179
0
0
0
3.68297e-176
6.30542e-164
5.26738e-93
0
8.61703e-100
7.19898e-225
0
0
1.52537e-56
0
1.2682e-173
0
0
1.54178e-315
0
0
0
0
7.9738e-101
0
0
0
0
0
0
0
0
1.02388e-147
0
0
0
5.86425e-198
0
5.76431e-244
0
2.46677e-43
0
0
8.03204e-151
2.33014e-146
0
0
0
0
0
0
0
3.71237e-266
0
6.15048e-206
0
2.44841e-278
0
0
0
7.60871e-169
8.57149e-29
0
0
0
4.85532e-169
0
0
2.84491e-174
0
0
0
0
1.94497e-104
0
0
0
0
0
0
0
2.04414e-153
0
0
0
0
0
0
4.69429e-47
4.16965e-74
1.22317e-304
0
0
5.97535e-279
0
0
0
0
0
0
0
0
0
0
0
0
0
0
0
0
0
0
0
1.04438e-120
0
1.70399e-196
6.06901e-147
0
0
2.19182e-144
0
1.49045e-160
0
0
0
0
0
0
1.23032e-306
6.82872e-147
0
0
4.22005e-144
1.46394e-144
0
0
0
0
0
0
0
0
0
0
1.45151e-139
1.36944e-137
2.67203e-145
0
3.50129e-143
0
0
0
0
0
0
0
1.28214e-181
0
0
0
0
1.57863e-117
0
0
0
0
0
0
2.73981e-118
0
0
0
0
0
6.88415e-121
0
0
6.55601e-185
0
0
3.89582e-121
1.81196e-125
0
0
0
0
0
0
8.36112e-35
0
5.96081e-25
5.75749e-87
0
0
0
0
0
4.5432e-138
0
1.41935e-177
0
0
4.03511e-170
2.20599e-20
0
5.49729e-215
0
0
2.35341e-99
0
0
0
0
5.27301e-222
0
0
0
0
0
6.62966e-205
0
0
0
0
0
2.13005e-235
0
0
0
0
0
0
2.3217e-242
0
6.96641e-107
6.85486e-279
0
3.77503e-110
0
0
0
0
0
0
0
3.50794e-149
0
0
0
6.70207e-130
0
0
0
0
0
0
9.02518e-151
0
0
0
0
0
0
0
2.03725e-130
2.00704e-202
2.69176e-158
6.26356e-197
9.86367e-103
2.91016e-59
2.19358e-188
0
7.77249e-55
0
0
0
0
0
0
0
0
0
0
2.00257e-235
0
0
0
0
1.40805e-86
0
1.40246e-177
0
0
0
4.5955e-133
0
0
1.81593e-109
0
0
0
5.05298e-233
0
4.04703e-157
0
0
0
0
1.31641e-164
2.50798e-192
0
0
2.48763e-251
0
7.40395e-249
0
0
0
5.42723e-191
8.06209e-148
0
0
0
0
0
0
0
0
0
0
1.28724e-269
6.83329e-207
0
6.31173e-173
2.48218e-65
0
6.50579e-168
0
0
0
0
0
0
0
0
0
0
0
0
1.81729e-168
0
0
0
0
0
4.84799e-176
0
3.36501e-168
0
0
0
4.60829e-318
3.29693e-197
5.3445e-185
0
0
0
0
1.70282e-193
0
0
3.83459e-22
0
2.04084e-196
3.78018e-07
0
0
1.08884e-198
9.5034e-120
7.41952e-78
1.26797e-112
0
0
4.71994e-110
0
0
6.07647e-121
2.26704e-119
6.61399e-215
8.36272e-90
0
0
0
0
0
0
0
3.06948e-279
0
3.33846e-117
4.23145e-126
0
0
0
0
1.17501e-114
0
2.36711e-149
0
3.45156e-208
0
0
2.73303e-120
8.99057e-118
1.42056e-140
0
0
5.69379e-186
0
0
3.89225e-32
0
1.19705e-90
0
0
3.48291e-93
0
0
0
0
2.49736e-91
0
0
0
0
5.36013e-50
0
0
5.21864e-153
0
0
4.04078e-205
4.25938e-153
1.11544e-61
0
0
0
0
0
2.55763e-182
0
0
0
0
3.8915e-149
1.20189e-138
0
0
4.26518e-318
0
0
1.43481e-142
0
0
1.30073e-105
0
0
1.49598e-187
5.80896e-190
4.23232e-210
6.52692e-274
3.17946e-271
0
0
0
0
0
1.87162e-112
2.81713e-171
0
0
0
5.21424e-178
0
5.77461e-45
0
1.22324e-272
0
4.17398e-178
5.49957e-119
2.92522e-176
0
0
0
1.75329e-198
0
0
0
1.47034e-104
1.59786e-105
0
4.57928e-85
0
0
1.3401e-264
1.81525e-102
7.61472e-105
0
0
4.88596e-172
0
0
1.08604e-122
4.29787e-117
0
0
0
6.82121e-138
0
0
0
2.36901e-119
4.32647e-189
1.30174e-106
0
0
0
0
0
0
0
4.11835e-132
9.5991e-249
2.11226e-101
0
8.31548e-85
0
1.65062e-291
0
0
0
0
0
0
0
0
1.5496e-125
0
5.94465e-35
0
0
2.85323e-32
0
1.98859e-08
0
0
0
0
0
7.79905e-191
0
0
0
0
0
0
0
1.04816e-182
0
0
0
9.19069e-152
0
0
0
0
0
0
0
1.50712e-204
3.11766e-85
1.58759e-223
0
0
2.2558e-152
0
0
0
0
0
0
0
0
1.22629e-29
0
0
0
6.97097e-15
0
0
0
0
0
0
9.98321e-94
2.91582e-239
0
0
0
0
0
0
0
0
9.79012e-221
0
0
1.0983e-76
2.42851e-151
7.30806e-193
0
0
0
8.82472e-61
0
1.43926e-104
0
0
0
0
0
0
0
0
0
0
0
3.16849e-147
3.81244e-170
0
0
0
0
7.88279e-215
1.41239e-154
0
0
0
0
0
0
3.67354e-138
0
0
0
7.67574e-254
0
1.12056e-105
8.80729e-188
2.3666e-134
0
0
0
0
0
0
0
0
0
0
0
0
5.27481e-132
4.13339e-42
3.13597e-34
0
7.45076e-54
0
0
0
0
2.23774e-112
0
0
0
0
0
0
4.06573e-310
0
0
0
0
0
0
0
0
0
0
0
0
0
0
1.14035e-151
0
0
1.14453e-238
0
0
7.7626e-265
2.22255e-161
6.77159e-25
0
0
9.73848e-163
0
0
0
0
0
0
0
9.45388e-159
0
0
0
0
3.41088e-39
0
0
9.8195e-157
7.70648e-170
0
0
0
2.14754e-172
0
0
0
0
1.01137e-134
7.33085e-171
6.03865e-160
0
0
7.26448e-58
3.47923e-28
0
4.21518e-197
0
0
0
0
0
0
0
0
0
0
0
1.84296e-106
0
3.81543e-85
0
7.28199e-134
0
0
3.44026e-193
0
0
0
0
0
0
0
6.88463e-99
2.68672e-207
0
2.32706e-199
5.03228e-94
0
2.91418e-317
0
0
0
3.65774e-222
0
5.05477e-247
0
0
1.89355e-244
1.97209e-15
3.28521e-244
0
0
0
0
1.55978e-295
0
0
1.41038e-275
0
1.26453e-241
0
0
3.88455e-220
2.41284e-189
0
0
0
1.58572e-282
0
0
1.41411e-165
0
1.64383e-297
0
0
3.00121e-118
0
0
0
2.14142e-225
0
4.40987e-142
5.08082e-271
1.67094e-69
0
0
0.00244217
2.81726e-39
0
7.30006e-05
0
0
0
0
0
0
0
0
0
0
0
0
4.07697e-249
0
0
0
1.93046e-306
0
1.95504e-140
0
0
0
1.80074e-146
0
0
0
0
0
0
0
0
5.67374e-146
1.01461e-121
0
0
0
0
8.49399e-299
0
4.5351e-128
0
0
0
3.09345e-96
0
0
4.32631e-124
0
1.99533e-108
0
0
1.80558e-200
0
0
0
0
1.18406e-308
0
1.65636e-145
0
7.43715e-42
4.02241e-75
1.36563e-66
0
0
8.5981e-189
7.74837e-223
0
0
0
0
0
0
2.27864e-59
0
0
0
0
0
0
0
0
0
0
0
0
0
0
0
0
0
0
0
0
0
0
0
0
0
0
0
0
0
0
0
0
0
2.48209e-147
0
0
3.63156e-50
0
0
0
0
0
5.07337e-166
0
0
0
0
0
2.86754e-110
0
0
0
0
0
3.96645e-180
0
0
0
0
0
1.1446e-163
0
0
0
6.10104e-250
0
2.033e-206
0
0
1.83269e-161
0
0
0
1.45029e-72
4.85258e-187
0
3.03657e-300
0
4.01826e-286
0
0
0
0
0
0
0
0
9.82971e-169
0
0
0
0
0
0
0
3.60688e-124
1.20749e-263
0
0
0
0
0
0
0
0
0
0
0
0
0
0
9.05675e-110
0
0
2.68241e-182
0
2.04588e-52
0
0
0
0
0
0
0
0
0
3.69606e-277
0
0
3.40824e-204
4.76733e-226
0
0
0
0
0
0
0
0
0
0
0
0
0
0
0
0
0
0
7.76173e-209
0
0
0
3.35909e-185
0
0
6.46928e-189
1.84963e-191
0
0
0
2.97515e-262
0
0
0
0
0
0
0
2.03477e-267
0
1.16598e-288
0
0
0
0
0
0
0
0
6.00611e-168
0
3.84413e-197
0
0
0
1.198e-194
6.69499e-280
0
0
1.47595e-124
0
2.44574e-301
0
0
0
1.29981e-96
1.57593e-72
0
0
0
5.63037e-252
0
0
0
0
0
0
0
0
0
0
0
1.15202e-62
0
0
0
0
1.64774e-185
1.55225e-170
0
0
0
0
0
0
0
0
1.84297e-314
0
0
0
0
7.18237e-255
3.27806e-258
0
1.72859e-312
0
2.9305e-102
0
0
1.04605e-66
0
0
0
0
0
0
0
0
0
0
9.67915e-97
5.30053e-161
3.13882e-134
0
0
0
1.70337e-43
0
7.87786e-148
8.82329e-91
2.11413e-150
6.73459e-153
2.07508e-322
0
0
0
0
4.67608e-95
0
1.77632e-155
0
0
0
0
0
0
0
0
0
0
0
0
0
0
0
0
0
0
3.48864e-228
0
0
0
1.0671e-305
0
0
0
0
0
0
0
0
0
1.41038e-127
0
0
0
0
0
0
0
1.89539e-116
0
0
0
1.45366e-146
0
0
8.77589e-127
0
0
0
0
0
3.04078e-141
0
3.19705e-144
2.86679e-55
1.41049e-13
0
0
0
0
0
5.35855e-16
0
0
0
5.21712e-176
0
4.69608e-179
2.22176e-172
0
0
0
0
0
0
0
0
4.97034e-82
2.09572e-266
0
0
0
0
0
0
2.58449e-156
0
6.27572e-147
2.28413e-38
0
0
0
0
0
0
0
9.16568e-315
3.59747e-149
0
0
0
0
6.25257e-178
1.46351e-158
0
2.47225e-289
0
1.25111e-153
0
0
1.59612e-117
3.23564e-197
4.18798e-210
0
0
0
0
4.66089e-36
3.1687e-159
0
0
0
0
5.36411e-263
1.03335e-153
4.61338e-151
0
0
0
3.73099e-189
0
0
0
0
0
8.94513e-173
0
0
5.55645e-70
0
4.64454e-58
0
0
0
0
0
0
0
0
0
0
0
0
0
3.53907e-243
0
0
4.91944e-225
0
4.38151e-209
0
0
0
4.35479e-267
0
0
0
0
0
0
0
0
0
0
0
0
0
0
0
0
0
0
0
9.64102e-162
4.34046e-70
0
6.23208e-77
6.30837e-86
0
0
2.71436e-285
0
3.3864e-165
0
7.32795e-302
4.94066e-324
0
0
3.79311e-304
0
0
0
0
3.05993e-284
1.23805e-301
0
0
1.84004e-161
0
0
0
0
0
6.90488e-279
7.75113e-139
0
4.39445e-268
2.67982e-135
1.76768e-282
7.54757e-159
0
0
7.08727e-305
0
0
0
2.65582e-156
0
0
0
0
0
0
0
0
0
6.98803e-93
0
4.14514e-145
0
0
0
1.65276e-90
0
0
0
6.01678e-214
4.77974e-167
0
0
0
0
5.10263e-117
4.12742e-240
0
0
1.57518e-255
0
0
0
0
0
0
0
4.42355e-121
0
0
0
0
0
0
0
0
0
0
1.45016e-180
0
0
0
0
0
1.04951e-248
0
0
0
0
0
0
0
0
0
0
0
0
0
7.8032e-174
3.09459e-265
0
0
0
0
4.40898e-127
1.02668e-131
0
5.72388e-234
1.71115e-288
0
0
0
0
0
0
0
0
0
7.56669e-219
0
2.60554e-263
0
0
0
0
6.67204e-170
0
0
0
1.1212e-165
2.64153e-126
0
0
0
3.0362e-126
0
0
0
0
1.39535e-289
0
0
0
1.19116e-123
0
0
0
1.50636e-136
0
0
0
0
0
1.07808e-79
0
0
6.49415e-137
9.02522e-142
0
1.01685e-145
0
0
3.84092e-193
0
2.77267e-274
0
0
0
0
0
0
0
0
0
0
0
0
0
0
0
0
0
0
0
0
0
3.07444e-175
0
6.75158e-143
0
0
3.61499e-196
0
0
0
0
0
0
0
0
1.59408e-221
0
0
5.99739e-121
5.4062e-179
0
0
3.18855e-182
6.54941e-204
2.62278e-93
0
0
0
0
0
1.39844e-203
0
1.94488e-48
0
2.77024e-86
0
0
2.35496e-135
9.46604e-129
9.61989e-81
0
0
0
0
0
0
3.66441e-36
1.98815e-302
3.4936e-252
1.67452e-182
0
0
0
0
2.08137e-116
0
0
0
8.91987e-114
5.53904e-220
3.52428e-187
0
0
0
2.0274e-88
0
4.2652e-279
6.12117e-95
0
2.97782e-270
8.4304e-93
0
0
0
2.99519e-262
1.3718e-295
0
0
0
0
0
3.46166e-136
0
2.90345e-85
0
0
0
0
0
0
0
2.4711e-160
1.54503e-33
3.52307e-31
0
0
0
0
0
0
0
0
0
0
0
0
0
0
0
3.91021e-80
1.08397e-78
0
0
0
0
0
0
0
0
0
0
9.40298e-170
0
0
4.08244e-227
0
0
0
0
0
0
2.61109e-179
1.13916e-181
0
0
0
0
0
0
0
0
2.22929e-27
0
0
0
0
0
0
0
0
0
0
0
0
0
4.44142e-231
0
0
0
0
0
0
0
2.01348e-233
0
7.05621e-310
0
0
0
0
0
0
1.97352e-12
2.33099e-14
3.94431e-173
9.46011e-14
0
0
5.46074e-252
0
0
0
8.0481e-220
0
1.28905e-141
0
0
0
3.13668e-178
1.53061e-236
1.06343e-117
0
0
0
0
0
0
0
0
0
5.25301e-270
0
2.54081e-243
0
0
0
0
3.45897e-313
0
1.35319e-174
0
0
4.9526e-162
0
3.85514e-311
3.71221e-206
0
1.06358e-222
0
0
0
0
0
0
0
0
0
2.81161e-134
0
0
0
0
0
0
0
1.06339e-224
0
0
0
0
0
0
0
0
0
0
1.26632e-278
1.91054e-112
0
0
6.29496e-158
0
1.73975e-216
0
0
0
3.7435e-51
2.54048e-154
0
0
1.32557e-185
0
0
0
0
0
0
0
1.1307e-187
1.70429e-248
5.62815e-103
4.2204e-194
0
0
0
1.23617e-190
0
3.1312e-49
0
0
0
0
0
0
0
1.50009e-135
0
0
0
0
0
0
0
0
3.38491e-137
3.32939e-107
0
0
0
0
3.25099e-263
0
0
0
0
0
0
2.36839e-199
0
0
0
0
0
0
0
0
0
0
0
0
0
0
0
0
0
0
0
0
0
2.80561e-293
0
0
0
0
0
0
0
1.75149e-137
0
3.90177e-147
0
5.01963e-140
0
0
0
0
0
0
0
0
0
0
0
0
0
0
0
0
0
0
1.87745e-322
0
0
0
0
4.8197e-148
0
0
0
0
3.5351e-150
0
0
0
0
0
0
0
0
2.35419e-111
0
0
0
0
0
0
0
5.46762e-220
5.07185e-290
7.30582e-123
3.27969e-148
0
1.39736e-113
2.54246e-137
0
0
0
0
0
0
1.95015e-212
0
0
0
0
0
0
0
0
0
0
0
0
0
0
2.99398e-147
5.50023e-68
0
3.12451e-272
3.49961e-201
7.41098e-323
0
0
0
0
0
4.41929e-279
0
2.78554e-320
0
0
0
0
0
0
0
0
0
0
0
0
0
0
0
0
0
0
0
0
0
0
5.07342e-259
0
5.77512e-250
0
0
0
8.14693e-295
0
0
1.42153e-149
0
0
0
0
0
0
8.09304e-169
0
0
4.39036e-151
0
0
0
0
0
1.41482e-142
2.01447e-242
0
1.13647e-278
1.08256e-86
0
0
0
2.14841e-135
0
0
0
0
0
0
0
2.73989e-269
0
0
0
0
0
1.58777e-276
0
0
0
0
0
0
2.90003e-170
0
1.14679e-165
0
0
0
0
5.33806e-57
0
3.37674e-72
0
0
0
0
0
0
0
0
0
0
0
0
0
0
0
8.81537e-319
0
0
9.44531e-77
0
1.86644e-141
0
2.32863e-71
2.11087e-132
0
0
0
0
0
0
0
0
0
0
0
0
0
0
3.80356e-79
0
0
0
0
0
0
0
0
1.29673e-141
0
0
0
0
0
0
0
0
0
0
0
0
0
0
0
0
4.98016e-294
0
0
0
0
0
0
0
1.83577e-129
0
0
0
0
7.40452e-140
0
0
0
0
0
0
0
0
1.63157e-219
0
0
0
0
0
0
0
0
0
0
0
0
0
0
0
0
0
0
1.24739e-280
0
9.86467e-304
0
0
7.38964e-153
0
0
0
0
1.70946e-219
0
0
0
0
0
0
0
0
0
0
0
0
0
0
9.28957e-309
0
0
0
0
0
0
0
5.4777e-295
0
0
4.86272e-101
0
0
0
0
0
0
1.73463e-93
0
0
0
0
0
0
0
0
0
0
0
0
4.18282e-155
0
0
0
0
3.01611e-70
0
0
0
3.10192e-165
0
0
0
2.82494e-61
0
0
0
0
3.83597e-253
0
0
0
0
0
0
3.1006e-132
2.1528e-44
6.45273e-15
0
2.20854e-217
0
0
0
0
0
0
1.97732e-180
0
1.76941e-260
0
0
0
0
0
0
5.59352e-139
0
0
8.51248e-160
0
5.27331e-87
0
5.28803e-145
0
0
0
0
0
0
9.92044e-181
4.71436e-100
0
0
0
0
5.03193e-64
0
0
0
0
3.45052e-61
0
2.89801e-102
7.96135e-120
0
0
0
0
1.02255e-159
0
2.39333e-172
0
0
0
0
3.52522e-209
0
0
0
0
0
0
0
1.43445e-128
8.97072e-70
0
0
0
0
0
0
3.45505e-64
6.84852e-102
0
0
0
0
0
0
0
0
0
0
0
0
1.12829e-120
0
0
0
0
0
0
0
0
0
0
0
0
0
4.97196e-262
0
0
0
0
0
0
0
0
0
7.15412e-291
0
0
0
0
0
0
0
0
0
0
0
0
0
0
1.7647e-290
0
0
0
0
0
0
0
0
0
0
0
0
0
0
0
2.95059e-59
0
0
4.72322e-168
0
0
0
6.17116e-53
1.07532e-54
8.15445e-212
0
9.00028e-55
0
0
0
0
0
0
0
0
0
1.61733e-177
0
0
0
0
0
0
3.40317e-226
0
0
0
5.4767e-63
0
0
0
0
0
0
0
0
0
0
0
0
0
0
0
0
0
0
0
4.66517e-107
0
0
2.14761e-180
0
0
0
0
1.91211e-268
0
0
0
0
0
0
0
0
0
0
0
0
2.83649e-280
0
0
0
0
7.54599e-39
0
0
0
0
0
0
0
0
0
0
0
0
0
0
2.31969e-38
0
0
0
0
0
0
0
0
0
0
0
0
0
0
0
0
0
9.88131e-324
0
0
1.67102e-109
0
0
1.20732e-161
0
0
0
0
3.57356e-74
7.03701e-296
0
0
0
0
0
0
0
0
0
1.05295e-60
0
0
5.23551e-60
1.46637e-57
0
0
0
0
0
0
0
0
0
0
0
0
0
0
0
0
0
0
0
0
0
0
0
0
0
0
0
2.22852e-118
3.4706e-157
8.17513e-116
0
2.04263e-14
0
0
0
0
2.55611e-130
3.90936e-128
0
0
0
0
0
0
6.23967e-126
0
0
0
0
0
0
0
0
0
0
0
0
0
0
0
0
0
3.36352e-242
0
0
0
0
0
3.55093e-81
0
0
0
0
0
0
0
0
0
0
0
0
0
2.81015e-258
0
0
7.47762e-247
0
0
0
0
8.88043e-290
0
0
9.99521e-54
0
0
0
0
0
8.3071e-253
0
0
0
0
0
0
0
0
0
0
0
0
0
0
0
0
0
9.55227e-309
0
0
0
8.21208e-55
0
0
3.62857e-133
0
1.34385e-135
0
0
0
4.26045e-228
2.50262e-263
0
0
0
1.64606e-230
0
0
0
2.20839e-277
0
0
0
0
2.73488e-293
0
0
0
2.91938e-227
0
0
0
0
2.30616e-278
0
8.33339e-231
0
0
0
0
0
0
0
0
0
0
0
0
1.19564e-321
0
0
0
0
0
5.44673e-240
0
0
0
0
0
0
0
0
0
0
0
0
0
0
0
0
0
0
0
0
0
0
0
0
0
0
0
0
0
0
0
0
2.35193e-146
0
0
0
0
0
7.09121e-312
0
0
0
0
0
1.4068e-250
0
0
0
0
0
2.83397e-267
0
0
0
0
0
0
0
0
0
0
0
0
0
0
0
0
0
0
0
8.01398e-270
0
0
0
0
0
0
0
0
0
0
0
0
0
5.72106e-223
0
0
0
0
0
0
1.08694e-322
0
0
0
0
0
0
0
6.31231e-27
0
0
0
0
0
0
0
0
0
0
0
0
0
0
1.01109e-258
0
0
0
0
0
0
0
0
0
0
0
0
0
0
1.13927e-263
0
0
5.29793e-261
3.02587e-250
0
0
0
0
7.87922e-247
0
2.30694e-259
0
0
0
0
0
0
0
0
0
2.48338e-258
0
0
0
0
0
0
0
0
0
0
0
0
0
0
0
0
0
0
0
0
0
0
0
0
0
0
0
0
8.37127e-113
4.51151e-63
0
0
0
0
0
0
1.08828e-128
0
3.51814e-121
9.10418e-111
0
0
7.94083e-105
0
0
0
0
0
0
0
7.689e-103
0
0
0
4.96479e-134
9.00198e-111
0
0
0
0
0
0
0
0
0
0
0
0
0
0
0
0
0
0
7.21538e-125
0
0
0
0
0
0
2.92716e-217
0
0
0
1.67104e-233
0
2.38565e-13
0
0
0
0
3.50551e-140
0
0
0
0
0
0
0
0
0
0
0
0
0
0
5.97455e-268
0
2.69342e-267
0
0
9.71379e-267
1.95835e-264
0
0
0
0
0
2.2329e-95
0
0
1.38477e-264
0
6.10826e-262
0
1.351e-125
0
0
7.609e-280
6.18637e-297
0
0
0
0
0
0
0
0
0
3.8785e-24
9.90196e-315
0
0
0
0
0
0
0
0
4.13732e-209
0
0
0
0
0
0
0
0
0
0
0
0
0
0
0
0
0
0
0
0
2.98921e-191
0
0
0
3.80161e-149
1.76653e-187
0
0
0
0
0
4.53768e-185
0
0
0
0
5.53972e-253
0
0
0
0
0
0
0
0
0
0
4.66648e-233
0
5.14242e-251
0
0
0
0
0
0
0
0
0
0
0
0
0
0
0
0
0
0
0
0
0
0
6.75722e-210
1.82356e-220
0
0
0
0
0
0
0
0
0
0
0
1.56331e-133
0
0
0
0
0
0
0
0
0
0
0
0
3.88041e-252
0
3.27174e-249
0
0
0
0
0
0
0
7.23129e-285
0
3.55852e-272
4.9537e-87
0
4.11939e-88
0
0
0
0
0
0
1.51719e-85
0
0
0
0
0
0
0
0
0
0
0
0
0
0
0
0
0
0
0
0
0
0
0
0
0
0
0
0
2.37842e-277
0
0
0
0
0
0
0
0
0
0
1.81282e-285
0
2.61889e-310
0
0
8.75588e-229
9.89287e-275
0
0
0
0
0
0
0
1.27392e-303
0
0
0
0
3.46531e-267
0
0
0
0
0
0
0
0
0
0
0
0
0
0
0
0
0
0
0
0
0
0
0
0
0
2.27146e-217
0
0
0
0
0
0
0
0
8.37147e-261
3.72953e-148
2.07875e-267
8.34359e-265
0
0
0
0
0
0
0
0
0
0
0
0
0
0
0
1.07178e-311
0
3.08771e-217
0
0
0
0
0
0
0
0
0
0
0
0
1.03716e-214
0
0
0
0
0
0
0
0
0
0
0
0
0
0
0
0
0
0
0
3.28627e-230
0
9.83191e-322
0
0
0
0
0
0
0
0
0
1.03896e-90
0
0
1.44456e-77
1.84167e-42
0
0
1.50118e-123
0
1.04606e-227
0
4.31928e-195
0
0
1.36129e-190
9.58022e-219
0
3.47795e-152
0
0
1.40577e-174
2.17966e-117
1.23446e-122
0
2.6959e-130
0
0
0
0
4.87991e-107
0
2.93399e-182
0
0
0
0
8.18788e-172
0
0
0
0
0
0
4.02144e-221
0
0
1.75386e-162
0
5.9422e-213
0
1.38996e-152
0
4.68167e-156
0
0
1.0428e-171
0
0
3.02646e-196
5.90676e-244
0
0
1.26871e-153
9.51442e-197
0
0
9.48203e-195
2.55559e-145
1.6767e-200
1.22851e-48
5.38753e-99
0
4.51237e-60
0
0
5.06757e-146
1.9469e-187
0
0
0
0
0
2.14088e-68
0
0
0
4.79214e-112
0
2.74099e-09
0
0
0
4.9871e-56
4.05697e-111
3.43179e-37
1.95267e-52
0
0
1.71984e-320
0
1.3751e-209
0
0
0
1.47391e-143
3.40094e-172
0
0
0
0
9.83535e-165
9.45133e-71
3.65688e-135
2.76907e-163
6.87444e-168
1.83243e-61
0
1.61934e-121
0
0
0
1.57158e-306
0
4.988e-84
0
1.71118e-152
0
0
4.14986e-304
0
0
0
0
0
4.4223e-192
3.59081e-143
0
0
0
1.38325e-164
1.61428e-132
2.90533e-121
5.34508e-123
0
3.50074e-202
0
0
3.15903e-123
0
0
2.69564e-200
0
0
8.00671e-197
1.72058e-191
0
0
0
2.1251e-191
0
2.96684e-174
0
6.59098e-202
7.90605e-262
0
0
2.92543e-315
0
3.24107e-76
8.37049e-261
2.53366e-192
0
0
0
0
0
0
9.83574e-126
0
3.19689e-61
0
0
0
0
9.89601e-188
0
0
0
0
4.70159e-278
1.16091e-69
0
2.35123e-210
3.29818e-211
0
0
5.40853e-197
0
0
0
0
1.75811e-185
3.79437e-202
0
1.81913e-172
1.96441e-320
0
0
0
0
2.75483e-86
0
7.65874e-63
9.97578e-146
3.31814e-127
0
0
0
0
0
5.97446e-126
0
1.99988e-267
3.25389e-43
3.99403e-101
0
0
2.36885e-169
2.76982e-174
0
9.07477e-101
1.509e-150
0
0
0
0
0
0
0
0
0
1.27951e-185
0
0
0
2.47959e-143
0
5.15952e-111
0
9.25516e-36
5.95981e-160
0
0
0
0
1.11339e-111
0
0
5.13619e-26
4.52208e-225
0
0
0
8.54108e-89
1.61174e-51
9.39635e-110
0
6.8006e-157
0
0
0
0
6.4138e-144
8.35812e-98
0
0
5.35043e-97
0
0
0
0
4.71094e-55
0
0
0
0
0
0
0
0
0
0
0
7.80175e-173
0
8.15362e-111
0
0
0
0
6.57932e-111
0
0
8.80693e-59
1.05481e-142
0
0
0
7.33334e-134
0
0
1.28532e-150
0
0
0
6.06701e-134
0
3.75162e-139
3.32989e-177
0
0
0
0
0
0
0
0
5.97489e-307
9.5814e-222
8.43231e-151
0
0
0
6.81725e-206
0
1.8976e-121
1.90085e-92
0
0
0
0
0
0
2.24449e-109
3.94765e-84
9.37234e-70
2.48673e-152
0
0
0
1.40047e-126
0
0
0
0
0
0
3.72217e-121
3.79958e-54
0
0
0
0
0
1.7864e-287
1.78666e-167
1.23967e-141
2.87148e-140
3.18386e-309
0
2.22906e-301
2.71417e-165
0
0
1.43378e-214
0
0
1.82528e-131
0
0
6.08025e-104
0
0
0
0
9.04537e-51
1.68606e-306
0
0
1.79949e-12
0
1.08226e-112
8.42486e-118
1.45053e-54
0
2.7189e-59
0
2.95774e-65
0
0
0
6.33709e-79
0
0
0
0
2.34969e-174
0
0
0
0
0
1.68701e-265
0
0
6.7328e-119
0
2.46102e-139
0
0
6.45799e-142
0
0
0
0
2.83484e-58
0
0
0
0
2.39059e-154
0
2.82351e-124
5.50978e-107
1.61682e-14
0
0
7.1344e-45
0
1.63557e-120
2.51296e-221
6.20163e-138
0
6.30976e-157
0
2.81663e-138
0
0
7.23276e-22
0
0
1.83845e-37
0
0
1.80916e-32
0
1.14383e-134
0
0
9.24547e-79
2.61398e-76
5.67918e-79
0
0
0
0
2.15834e-128
0
1.11977e-88
0
6.48643e-156
0
3.14201e-216
0
1.34896e-150
0
1.08775e-108
0
0
0
3.82543e-109
0
2.04525e-229
0
0
0
0
0
5.78918e-88
0
0
0
2.29726e-58
0
0
0
0
0
0
3.49231e-230
0
0
0
0
0
0
0
2.94573e-106
0
0
7.75453e-82
0
0
4.78194e-120
0
0
0
0
5.62558e-100
0
0
0
0
0
0
1.83416e-91
1.21086e-142
8.70473e-120
7.65947e-145
3.2245e-147
0
0
0
0
8.89231e-102
0
0
4.82904e-116
0
5.89355e-120
0
0
7.69812e-151
0
0
2.63944e-97
0
0
0
0
2.47104e-69
0
1.2806e-67
0
0
0
0
1.03901e-44
0
0
0
1.78315e-70
0
0
0
0
0
0
0
0
0
7.13822e-63
0
0
0
0
0
0
6.29251e-144
6.51998e-67
0
1.18966e-151
0
0
0
0
0
0
6.08149e-57
0
3.91832e-106
0
0
0
1.37922e-64
0
0
1.0267e-55
1.14141e-22
0
2.4152e-123
3.42163e-41
9.80301e-41
0
7.78298e-126
0
0
0
0
0
0
8.72062e-132
0
0
0
3.7451e-253
0
0
2.81063e-38
0
0
0
0
0
0
0
0
0
7.83601e-142
0
1.64967e-109
0
0
1.87061e-290
4.97648e-293
0
4.94106e-47
0
0
0
3.53128e-05
0
0
0
0
7.35303e-150
0
0
0
0
0
0
0
0
0
0
0
0
2.47358e-98
0
0
0
0
0
2.77937e-44
0
0
1.43748e-84
0
0
0
0
1.64992e-156
0
0
2.00538e-272
0
3.31743e-100
7.27727e-277
8.59343e-102
0
9.11152e-191
2.41898e-195
0
0
1.19279e-62
0
0
6.1148e-114
9.14577e-257
0
2.93196e-150
0
0
8.80215e-133
0
0
0
0
0
0
0
1.18215e-142
0
1.89808e-54
7.93e-48
0
0
0
0
1.04473e-103
7.08986e-200
0
0
7.88132e-59
2.12307e-64
1.21121e-68
0.0016482
0
0
3.95805e-48
0
0
0
0
0
0
1.31176e-32
0
0
0
0
0
0
0
0
0
0
0
0
0
0
0
0
0
0
0
0
0
0
0
0
0
0
6.15838e-37
0
7.30112e-65
0
6.94103e-35
0
0
0
1.45832e-112
0
1.30062e-59
0
0
0
0
0
0
2.95477e-51
0
3.55805e-285
1.33309e-112
0
0
2.25293e-57
0
1.63944e-66
5.12358e-38
4.72987e-52
0
0
0
0
0
0
0
0
0
1.84319e-32
0
2.77331e-89
2.36363e-58
0
0
0
0
0
0
0
3.55818e-98
4.15898e-14
0
0
0
0
0
0
0
0
1.04625e-68
0
0
0
0
0
7.62826e-38
4.4742e-132
0
0
1.25989e-32
5.71834e-159
0
3.87567e-88
0
0
0
7.20708e-60
0
0
0
2.10772e-224
1.79784e-224
3.74229e-121
0
3.3741e-20
5.74042e-39
0
0
0
1.62529e-104
1.05617e-52
0
1.58987e-69
1.18048e-264
1.12368e-276
0
0
0
2.68872e-135
0
1.39711e-107
0
3.0803e-63
5.53655e-300
0
1.63431e-68
0
2.02567e-322
0
2.07767e-19
0
2.85029e-25
0
0
1.05081e-233
2.2503e-35
4.71604e-283
0
1.05687e-21
0
0
1.19122e-30
0
1.28078e-28
0
0
0
6.7187e-178
5.53679e-26
0
0
0
0
0
0
0
0
0
2.56391e-213
3.82889e-186
4.22323e-235
0
0
0
1.57121e-280
0
8.0855e-148
6.24763e-153
6.15307e-276
3.03192e-278
0
0
3.72302e-200
0
6.17848e-88
1.75009e-91
0
7.92517e-262
0
0
8.3884e-126
3.31547e-152
4.04051e-153
0
0
7.9765e-156
2.40434e-145
0
0
0
1.55678e-253
0
0
7.35065e-89
0
4.51951e-223
0
9.26407e-265
0
0
0
3.8434e-143
0
0
0
0
0
0
0
0
0
0
0
0
3.46012e-177
0
0
3.2501e-99
5.06199e-95
0
0
0
0
0
0
0
0
0
0
0
0
0
0
0
0
0
0
2.56661e-202
0
0
0
0
0
3.71612e-290
8.07856e-216
1.96234e-163
6.29704e-169
0
0
0
0
0
0
7.83087e-262
0
0
0
0
0
3.95151e-296
0
0
2.11545e-64
0
0
5.77522e-194
0
0
0
2.50676e-93
0
0
0
1.93803e-177
0
0
0
5.77842e-165
0
4.79608e-171
0
0
4.46057e-143
0
0
3.0209e-175
0
0
0
0
0
0
0
0
5.61869e-173
0
0
0
5.10774e-74
0
0
7.45159e-262
4.13599e-245
1.55378e-129
0
0
0
0
0
0
0
0
0
0
0
0
0
0
0
0
2.14315e-258
0
3.79587e-261
0
0
0
0
0
6.23326e-112
0
0
0
0
0
0
0
0
0
0
0
0
0
0
0
8.8779e-30
0
0
0
2.46814e-117
0
0
2.10148e-216
0
0
2.73654e-277
9.50215e-231
0
0
0
0
0
0
9.94931e-139
0
1.46669e-232
4.51462e-132
1.2507e-98
3.16825e-79
0
0
0
0
0
0
0
0
0
1.51128e-111
0
0
2.99087e-136
0
0
0
0
0
2.99832e-19
0
0
0
0
0
1.03951e-33
0
1.60703e-43
0
0
0
1.59105e-60
1.02521e-45
0
0
0
9.88131e-324
0
0
0
1.02552e-288
0
7.96714e-107
0
7.40117e-64
0
0
0
0
0
0
0
0
1.60517e-32
1.33377e-70
0
3.75971e-71
1.48841e-235
0
3.36968e-68
0
0
0
9.50207e-145
4.72994e-283
0
0
0
0
2.78617e-95
4.23645e-178
0
0
1.16094e-202
0
0
0
3.09356e-268
0
0
0
0
0
2.03508e-268
1.20701e-281
0
3.6548e-279
0
0
0
3.45096e-311
0
0
0
0
0
0
9.3472e-83
0
1.27375e-95
0
0
0
0
0
0
0
2.33692e-37
0
0
0
1.32062e-74
0
0
4.38763e-55
0
0
0
0
3.19425e-111
0
0
0
0
0
0
2.67695e-107
0
0
0
0
2.61912e-08
0
0
0
0
0
0
0
0
0
3.8947e-35
0
0
0
3.38147e-215
0
1.6052e-217
0
1.69252e-75
0
2.55203e-215
0
0
0
0
2.07174e-15
0
8.7562e-121
0
0
0
1.01631e-170
0
3.65986e-224
0
3.62496e-295
7.45997e-112
0
1.39254e-263
0
0
0
0
0
0
0
0
0
0
0
0
0
0
0
0
0
6.24446e-137
0
6.25536e-172
0
6.36114e-186
0
0
0
6.09173e-247
0
6.96301e-226
0
3.35144e-154
1.43233e-129
8.49036e-202
0
0
3.27739e-109
3.50204e-67
3.65846e-131
0
1.52841e-109
8.25851e-100
0
3.74435e-242
0
0
5.85304e-115
1.98018e-90
0
0
0
0
0
3.48848e-296
2.45423e-244
0
0
0
2.90945e-102
0
0
0
2.40584e-269
0
0
0
0
1.51867e-36
0
0
0
0
0
0
0
0
0
0
2.87022e-83
0
0
0
0
0
1.417e-37
0
6.52466e-33
0
1.92824e-28
0
0
0
0
0
8.18963e-139
0
0
0
1.73692e-314
0
0
0
0
0
0
0
0
3.44113e-101
9.26297e-69
0
0
0
3.62838e-58
0
3.19419e-83
0
0
0
0
2.36256e-10
0
0
0
3.83673e-93
0
7.59417e-306
0
0
3.4627e-316
0
0
0
2.36746e-104
0
9.14629e-80
0
0
0
0
0
0
0
1.20616e-69
0
3.25533e-161
0
1.23389e-70
0
0
0
0
2.12631e-74
2.63444e-24
0
2.09835e-42
0
0
0
2.11017e-69
0
0
0
4.18318e-118
0
0
0
0
4.0021e-92
0
0
0
1.03355e-56
0
4.09566e-41
1.03754e-109
0
0
9.41659e-94
0
0
0
0
0
0
0
1.77473e-96
0
4.44365e-226
2.76472e-257
9.92478e-208
9.43957e-239
0
0
0
0
0
2.10567e-241
5.83212e-209
0
0
0
0
0
0
0
0
0
2.13218e-194
0
0
0
0
0
0
9.2435e-294
1.43213e-292
0
0
0
0
0
0
0
0
0
0
0
0
2.78663e-257
0
0
0
0
0
1.35316e-213
0
0
0
0
0
7.67696e-237
3.72245e-288
1.34774e-295
0
0
0
3.44568e-196
0
2.65118e-302
0
1.44035e-204
0
0
5.95462e-211
1.40646e-283
1.23516e-322
0
0
0
0
0
0
8.26831e-292
0
4.78846e-264
1.89123e-134
2.63407e-257
7.47696e-212
0
1.31614e-224
0
0
0
0
0
0
0
0
0
2.50094e-220
0
0
0
0
0
0
0
6.85886e-213
0
0
0
0
0
0
0
0
0
0
4.02643e-210
0
0
0
0
0
0
0
0
0
0
0
0
0
0
0
0
0
4.83428e-222
0
7.33687e-320
0
3.66797e-185
0
0
1.8418e-171
0
0
0
5.37415e-241
0
3.49471e-237
6.10805e-203
1.0519e-158
1.33421e-181
1.04338e-284
0
0
0
4.66162e-210
0
2.6131e-183
0
0
0
0
7.77486e-318
0
2.7717e-271
0
1.09581e-177
0
3.74564e-273
0
0
0
0
0
0
0
0
0
2.25188e-202
4.51136e-231
0
0
0
0
0
0
0
1.00287e-281
0
0
0
0
0
1.53763e-298
8.95819e-307
1.69214e-299
0
0
0
0
0
0
0
0
0
0
0
0
0
0
0
0
0
0
3.6992e-259
1.72904e-268
0
0
0
0
0
0
4.56903e-202
0
0
0
0
0
0
3.31302e-198
0
2.7871e-195
0
0
0
0
0
0
0
1.58101e-322
7.21435e-196
7.00483e-290
0
0
0
3.82463e-189
0
3.90664e-213
0
6.96172e-122
1.12942e-266
0
0
4.40611e-270
0
0
0
2.68336e-226
4.72102e-276
0
0
0
0
0
1.46836e-280
0
0
2.68824e-197
0
0
0
2.90717e-232
0
0
0
3.15088e-219
0
0
0
0
0
0
0
0
0
0
0
1.74899e-321
0
4.15015e-322
0
0
2.71068e-304
0
0
5.40691e-289
0
2.8675e-295
0
4.67213e-314
1.82355e-260
0
0
0
0
8.93464e-280
0
0
5.86308e-320
0
0
0
0
0
3.29153e-225
0
0
0
0
0
0
0
0
0
8.17601e-296
0
0
6.93074e-297
0
0
0
0
0
1.05012e-66
0
0
0
0
0
0
0
2.85707e-293
0
0
0
9.5581e-305
7.91277e-264
0
1.13119e-273
0
7.04439e-320
0
0
0
0
0
0
0
0
0
0
0
0
0
1.85629e-184
1.74215e-279
1.09321e-257
0
0
0
2.71282e-263
0
0
0
0
0
0
0
0
0
1.09524e-259
0
0
0
0
0
0
0
0
2.56112e-278
0
1.4995e-256
6.185e-285
0
0
0
0
0
0
0
0
0
0
0
0
0
0
0
7.19912e-247
0
0
4.76244e-288
0
0
0
0
0
0
0
0
0
0
0
0
0
0
0
0
1.02015e-196
6.14903e-278
1.14221e-249
0
0
4.36126e-315
0
0
0
0
6.13869e-288
2.77747e-285
1.79059e-214
0
0
0
0
0
0
0
0
0
0
0
0
5.39364e-281
0
0
0
0
0
0
0
0
0
0
0
0
0
0
0
1.28991e-194
9.44151e-291
0
0
0
0
1.49011e-297
0
2.03853e-293
3.7774e-296
0
0
6.59352e-73
0
0
3.31577e-201
0
0
0
0
0
0
0
0
4.40146e-303
2.11442e-70
0
0
0
2.19523e-272
0
0
0
6.85366e-304
1.3202e-290
6.33827e-287
0
1.08305e-205
0
4.1623e-313
0
0
5.86892e-277
1.16727e-153
0
0
4.90486e-307
7.46186e-121
0
0
3.54992e-182
0
0
0
1.20155e-282
0
3.08635e-293
0
0
1.18375e-255
0
0
0
4.1907e-243
2.98873e-303
0
0
0
0
4.4769e-217
7.66012e-265
0
0
2.53055e-307
8.93091e-305
0
0
0
0
0
1.83645e-194
0
0
0
0
0
0
0
0
0
7.15469e-224
1.57248e-268
0
0
0
0
0
0
0
0
0
0
0
3.76661e-73
0
0
9.84543e-265
0
0
0
0
1.50389e-301
0
1.38258e-295
8.14224e-208
0
0
0
0
0
0
0
5.18314e-228
0
0
2.46478e-213
0
7.33079e-170
0
0
0
7.20084e-298
0
0
0
0
0
0
0
0
0
0
0
0
0
3.45672e-183
0
0
0
0
5.02961e-282
0
0
0
0
2.56374e-283
0
2.87254e-249
0
3.62238e-264
0
7.26573e-175
0
0
0
1.41968e-278
0
0
0
3.61108e-201
0
0
0
0
0
0
2.29293e-236
0
0
1.94068e-158
0
0
1.1024e-280
0
2.41684e-191
9.07051e-232
0
1.33694e-199
1.58717e-163
0
0
0
6.64519e-283
0
0
0
0
0
0
0
0
0
0
0
5.92879e-143
0
0
0
4.54495e-178
3.33176e-124
0
0
0
0
1.59724e-179
6.43441e-145
0
3.18838e-17
2.68995e-25
0
2.71095e-99
1.24828e-22
1.24814e-160
0
3.1685e-220
0
0
1.7814e-201
0
0
6.38087e-202
0
0
0
0
0
0
0
0
0
0
0
7.89176e-232
0
0
0
0
0
0
0
8.98755e-319
0
0
0
0
0
4.43593e-259
0
0
0
0
0
0
0
0
0
0
0
0
0
1.1801e-265
0
0
0
0
0
0
0
0
0
0
0
0
0
0
0
0
7.52732e-264
0
0
0
0
0
0
9.99142e-265
0
4.35367e-265
0
0
0
0
0
0
0
0
0
0
0
0
0
0
0
0
0
0
0
0
0
1.66637e-294
0
0
0
0
0
0
2.34295e-300
1.98105e-304
1.05332e-303
6.07855e-301
0
0
0
0
0
0
8.31016e-264
8.08608e-87
0
0
0
0
0
2.11499e-143
2.49882e-272
6.80395e-56
0
0
8.32929e-203
6.95896e-280
6.88895e-10
9.50669e-10
4.44201e-146
0
0
0