/*--------------------------------*- C++ -*----------------------------------*\
| =========                 |                                                 |
| \\      /  F ield         | OpenFOAM: The Open Source CFD Toolbox           |
|  \\    /   O peration     | Version:  v2012                                 |
|   \\  /    A nd           | Website:  www.openfoam.com                      |
|    \\/     M anipulation  |                                                 |
\*---------------------------------------------------------------------------*/
FoamFile
{
    version     2.0;
    format      ascii;
    class       volScalarField;
    location    "0.5";
    object      nut;
}
// * * * * * * * * * * * * * * * * * * * * * * * * * * * * * * * * * * * * * //

dimensions      [0 2 -1 0 0 0 0];


internalField   nonuniform List<scalar> 
108993
(
0.000100023
9.51187e-05
7.49869e-05
0.000103666
0.000103888
5.93665e-05
9.1064e-05
8.38203e-05
0.000102672
9.60741e-05
0.000108795
0.000107953
8.6496e-05
8.74381e-05
9.2581e-05
7.83466e-05
8.20939e-05
9.3451e-05
8.80447e-05
9.3653e-05
7.65749e-05
9.82086e-05
8.41149e-05
0.000102983
0.000100499
9.36651e-05
8.91276e-05
9.96891e-05
0.000110466
6.85073e-05
0.000110699
0.000106839
9.03896e-05
0.000105184
8.81583e-05
0.000103908
9.02337e-05
0.000102832
8.48534e-05
9.24409e-05
0.000116003
0.000110209
9.52465e-05
0.000102256
9.32249e-05
6.98957e-05
9.03909e-05
9.13902e-05
0.000118947
0.000101674
0.000103697
0.00011439
9.71128e-05
9.99385e-05
0.00010625
0.000109467
9.38115e-05
9.73101e-05
8.29298e-05
0.000111192
9.92489e-05
0.000100959
9.85064e-05
8.83971e-05
9.53198e-05
0.000110927
8.16663e-05
0.000107053
0.000115197
0.0001022
9.6735e-05
9.31363e-05
0.000102749
9.96499e-05
9.02194e-05
0.000109187
8.40085e-05
0.000117862
9.83704e-05
9.80756e-05
9.47485e-05
8.99736e-05
8.73967e-05
8.57373e-05
0.000110632
9.34151e-05
0.000110883
9.06991e-05
9.53703e-05
0.000107499
9.66701e-05
8.41204e-05
0.000107252
7.71471e-05
0.000103717
0.000102194
8.36714e-05
7.41476e-05
8.19323e-05
8.61655e-05
0.000105591
0.000117795
0.000115121
0.000110566
7.93531e-05
0.000105859
0.000110573
0.00011238
0.00010833
0.000111205
8.71947e-05
9.58432e-05
9.45996e-05
0.000100663
0.000102447
8.78159e-05
8.9337e-05
8.38033e-05
0.000114961
9.94109e-05
9.77587e-05
9.27176e-05
9.35445e-05
6.90853e-05
9.1675e-05
9.91315e-05
0.000102601
9.04357e-05
8.43806e-05
0.000105869
9.13042e-05
0.000107365
0.000112573
8.3666e-05
9.87532e-05
8.47437e-05
9.42298e-05
8.93866e-05
8.81046e-05
9.47555e-05
8.77404e-05
8.05001e-05
9.47516e-05
9.58948e-05
0.000105128
0.000101488
8.3761e-05
8.25624e-05
9.52124e-05
9.66972e-05
9.73321e-05
8.26024e-05
8.21552e-05
0.000105561
0.00010113
9.66092e-05
0.000117208
0.000103657
0.000101284
9.91253e-05
0.000107143
9.2242e-05
0.000113172
9.33816e-05
9.53999e-05
0.0001053
9.59205e-05
8.36799e-05
8.25896e-05
0.000113782
0.000105344
0.000105077
0.000105215
8.87647e-05
9.63292e-05
9.40007e-05
8.93663e-05
8.9335e-05
0.000107023
8.70704e-05
9.00004e-05
8.43934e-05
9.24907e-05
3.49934e-05
0.000115476
0.000101793
9.38286e-05
0.000101379
0.000101584
3.88052e-05
0.000101437
0.00010041
8.92382e-05
0.000100098
0.000107539
9.62046e-05
0.000112372
0.000102835
0.000109701
4.27334e-05
0.000106878
0.000106394
7.62715e-05
8.61925e-05
0.000104316
7.54091e-05
9.11727e-05
0.000102221
9.64113e-05
8.11055e-05
8.63811e-05
9.33034e-05
8.41792e-05
9.21856e-05
8.08434e-05
7.23086e-05
8.98246e-05
0.000100202
9.48798e-05
0.000119921
9.92379e-05
8.76528e-05
0.000105736
9.53765e-05
8.99016e-05
7.90228e-05
8.96817e-05
0.000110842
0.000105358
8.34629e-05
5.31027e-05
0.000101465
8.46074e-05
8.38356e-05
9.34505e-05
7.83872e-05
0.000104943
9.22427e-05
9.40674e-05
9.23062e-05
6.93621e-05
0.000106532
6.79659e-05
9.89845e-05
0.00010958
9.41266e-05
9.69972e-05
9.65378e-05
0.000100673
0.000109857
0.000127965
9.92339e-05
9.62548e-05
0.000105982
0.000101728
9.82178e-05
9.99225e-05
9.72177e-05
0.000112908
6.75233e-05
9.95216e-05
8.55919e-05
0.000110728
8.34098e-05
7.52411e-05
9.90692e-05
0.000109994
0.000114864
6.72139e-05
9.80494e-05
7.32541e-05
7.92678e-05
0.000101655
8.9659e-05
9.35832e-05
9.38713e-05
0.000106122
0.000114059
0.000109266
9.86748e-05
0.000106434
7.95029e-05
6.93946e-05
9.0957e-05
0.000104741
0.000100487
7.88929e-05
0.000105714
0.000112976
6.05029e-05
9.69887e-05
8.4753e-05
0.000108955
0.000104678
9.99199e-05
8.40787e-05
0.000112758
9.78541e-05
8.41744e-05
6.07879e-05
8.63361e-05
8.21278e-05
0.000106885
7.99852e-05
0.000102571
8.26209e-05
7.44704e-05
8.72966e-05
7.76594e-05
0.00010904
0.000107547
0.000107142
8.69188e-05
9.4644e-05
0.00010894
8.81237e-05
7.23091e-05
8.98386e-05
9.37437e-05
0.000115767
9.4761e-05
7.39305e-05
7.3859e-05
7.0494e-05
8.17613e-05
9.32386e-05
9.30035e-05
0.000111899
9.26775e-05
0.00011199
0.000118391
0.000115785
6.56395e-05
9.47756e-05
9.50498e-05
9.29525e-05
0.000100597
0.000103614
0.000102613
9.10698e-05
9.62976e-05
9.43531e-05
9.11228e-05
0.000105749
9.16591e-05
9.48508e-05
9.01918e-05
8.96182e-05
8.8151e-05
8.47773e-05
0.000103474
7.15068e-05
7.13951e-05
9.39692e-05
9.27003e-05
9.85564e-05
9.02001e-05
6.66313e-05
9.26012e-05
6.02803e-05
0.000118791
9.03886e-05
7.83412e-05
9.47513e-05
0.000100907
0.000107272
0.000105974
9.03867e-05
9.5712e-05
0.00010431
8.30869e-05
0.000105796
8.66798e-05
9.81953e-05
0.000120783
0.000103037
0.0001094
0.000131152
8.13564e-05
0.000105342
7.60384e-05
7.93772e-05
0.000110201
8.42886e-05
9.51964e-05
6.87303e-05
9.15184e-05
8.22987e-05
9.48025e-05
0.000109913
7.90165e-05
7.22345e-05
7.79741e-05
8.68911e-05
8.35e-05
0.000134419
8.98012e-05
0.000100023
9.40816e-05
9.74714e-05
0.00013213
9.18725e-05
8.23304e-05
0.000100665
0.00010328
7.31335e-05
9.05131e-05
6.50885e-05
9.25238e-05
8.21999e-05
9.24123e-05
8.92366e-05
8.15548e-05
8.84608e-05
0.000101513
0.000110998
0.00010085
9.1127e-05
6.06212e-05
9.29502e-05
9.74935e-05
9.6711e-05
7.42621e-05
7.77675e-05
0.000106662
6.50638e-05
0.000104785
7.28503e-05
8.30945e-05
6.82423e-05
8.151e-05
9.70241e-05
9.14011e-05
9.22654e-05
9.28078e-05
0.000100539
9.0068e-05
0.000103723
0.000108953
9.00451e-05
9.46716e-05
9.30256e-05
0.000113496
6.90279e-05
0.000103914
0.000109282
8.85225e-05
0.000108633
9.45995e-05
7.43549e-05
9.71406e-05
9.94097e-05
0.000108029
0.000125742
0.0001182
9.80478e-05
9.81335e-05
9.45187e-05
0.000117057
8.81293e-05
6.19178e-05
9.69838e-05
6.52032e-05
0.000100733
9.75867e-05
7.70557e-05
8.29203e-05
7.87997e-05
7.26669e-05
8.78506e-05
6.58253e-05
0.000104744
0.000102781
9.43656e-05
0.000111099
8.77553e-05
8.52388e-05
0.0001078
8.82724e-05
0.000105522
8.96947e-05
0.000115137
0.00011066
0.00010548
6.91118e-05
8.75382e-05
8.74239e-05
7.94897e-05
9.19863e-05
0.00010968
9.88816e-05
0.000108184
8.20488e-05
8.3418e-05
9.54345e-05
7.0384e-05
8.30144e-05
0.000106012
7.7744e-05
9.57953e-05
8.04876e-05
9.93582e-05
7.92875e-05
9.98097e-05
0.000105236
0.000104877
9.56311e-05
8.77446e-05
8.78026e-05
9.76186e-05
0.000104355
9.15312e-05
0.000106537
0.000111911
9.87695e-05
9.2661e-05
8.52674e-05
9.79495e-05
0.000113281
0.000117626
7.30852e-05
7.16849e-05
0.000100635
0.00010413
0.000112814
9.29709e-05
9.40396e-05
0.000103944
9.48731e-05
0.000111388
7.99342e-05
9.2269e-05
8.65439e-05
9.10064e-05
9.30465e-05
0.00011173
9.16418e-05
0.000104003
0.000108263
9.11032e-05
7.98653e-05
9.90117e-05
9.64755e-05
0.000111947
0.000111434
9.51625e-05
8.04411e-05
8.80435e-05
0.000109708
7.99303e-05
8.71276e-05
8.3609e-05
8.29199e-05
0.000117921
0.000109281
8.01704e-05
0.000107201
0.000113313
9.14531e-05
8.44438e-05
0.000101714
0.00010107
8.20893e-05
0.000105651
7.01917e-05
8.97433e-05
0.000104319
8.44152e-05
0.000129041
0.000108675
0.000104276
7.70816e-05
7.46599e-05
7.383e-05
9.86923e-05
9.92295e-05
0.000115137
7.14868e-05
7.95714e-05
9.96689e-05
0.000111744
9.18067e-05
0.000113049
0.000120521
0.000104686
8.54834e-05
8.73256e-05
7.40559e-05
0.000110393
7.35299e-05
0.000116936
7.63906e-05
9.36268e-05
9.78653e-05
8.4785e-05
8.99032e-05
0.000120689
7.80953e-05
0.00011225
9.40593e-05
0.000103332
0.000111559
0.000107003
8.85366e-05
8.60736e-05
7.1278e-05
0.000103234
7.56805e-05
9.74e-05
0.000103626
9.14571e-05
0.000103167
0.000114661
9.58583e-05
0.000120532
9.27247e-05
0.000104641
7.56803e-05
8.56209e-05
8.82696e-05
0.000115596
9.83439e-05
0.000104597
0.000105796
0.000110514
0.000110031
0.000117425
0.000102418
8.76789e-05
0.000102194
0.000105468
9.78166e-05
0.000103819
8.43215e-05
9.4769e-05
8.53795e-05
7.72253e-05
0.000112498
9.26018e-05
0.000106344
9.40791e-05
0.00010436
9.21287e-05
8.83145e-05
8.46555e-05
8.95343e-05
9.88441e-05
8.33255e-05
9.01694e-05
9.50368e-05
0.000101235
8.46732e-05
9.35411e-05
6.38328e-05
0.000110146
8.99869e-05
7.48495e-05
5.62749e-05
9.52004e-05
6.05097e-05
4.90429e-05
0.000100078
7.71412e-05
9.65007e-05
8.67996e-05
0.000100073
8.01352e-05
0.000107151
8.12884e-05
8.94504e-05
0.000115956
0.000118017
0.000112131
7.20008e-05
6.63698e-05
0.00011577
8.82753e-05
6.64385e-05
0.00010046
0.000109822
9.24054e-05
0.000107479
9.61641e-05
0.000102279
6.46748e-05
0.000132749
0.0001157
6.41777e-05
6.65479e-05
9.58654e-05
8.88125e-05
9.78031e-05
0.000104619
8.16422e-05
9.96728e-05
8.17221e-05
7.88786e-05
8.48579e-05
8.0034e-05
9.64765e-05
0.000100748
8.97446e-05
6.07002e-05
6.46322e-05
0.000122169
6.73501e-05
0.000103221
8.72922e-05
0.000103765
8.85722e-05
0.000101654
0.0001044
0.000100253
0.000108967
9.35689e-05
7.89667e-05
8.60531e-05
9.9336e-05
7.6193e-05
0.000107458
0.000108714
0.000103513
0.000124134
8.66545e-05
8.82908e-05
0.000103562
0.000107548
8.03126e-05
8.54043e-05
0.00010483
9.56502e-05
9.96788e-05
8.05142e-05
8.93656e-05
0.000105576
8.15312e-05
0.000115157
8.30466e-05
0.000103678
0.000118402
8.81778e-05
7.60804e-05
0.000102995
9.22817e-05
0.000107697
0.0001104
0.000114274
0.000126154
0.000104848
0.000135119
0.000107087
7.46918e-05
8.5149e-05
0.00012014
7.69529e-05
8.7837e-05
8.0204e-05
5.59005e-05
0.000119109
8.99517e-05
9.55058e-05
9.55836e-05
0.000121741
9.65264e-05
6.81315e-05
0.000107295
0.000106131
8.3848e-05
0.000103393
0.00010361
9.13827e-05
9.85433e-05
0.000103044
0.000107367
9.31994e-05
0.000118853
9.70301e-05
9.06484e-05
7.25041e-05
9.15445e-05
6.42382e-05
7.71605e-05
0.000103857
9.57285e-05
9.70919e-05
8.71232e-05
9.90451e-05
8.00014e-05
0.00010315
6.79016e-05
9.94335e-05
8.53647e-05
9.62636e-05
9.66007e-05
0.00011098
0.000122644
8.90604e-05
0.000109304
7.302e-05
0.000108304
8.83147e-05
9.15619e-05
0.000108309
9.36572e-05
0.000103967
0.00010796
0.000103841
9.53137e-05
8.56414e-05
8.89574e-05
8.60983e-05
0.000100713
0.000101222
7.65562e-05
8.24602e-05
9.22285e-05
7.86336e-05
9.86916e-05
9.39278e-05
8.03285e-05
8.66648e-05
7.90902e-05
9.7733e-05
0.000104202
9.6246e-05
8.7732e-05
7.70959e-05
8.39836e-05
8.22913e-05
0.000119145
9.72629e-05
0.000104206
0.00010014
0.000122878
8.84073e-05
7.73436e-05
9.33742e-05
7.54332e-05
0.000117351
8.62988e-05
8.13687e-05
0.000112256
9.215e-05
0.0001177
9.99306e-05
0.000100161
9.75744e-05
0.000107785
5.47939e-05
0.000100679
5.99838e-05
0.00010037
5.66462e-05
0.000105092
0.000100788
6.20561e-05
9.32495e-05
9.98932e-05
0.000124212
6.3241e-05
7.03962e-05
9.22291e-05
9.77375e-05
6.7107e-05
9.30553e-05
0.000107131
9.77591e-05
7.31052e-05
0.000108768
8.75788e-05
8.49109e-05
9.23405e-05
8.5704e-05
6.54235e-05
9.44098e-05
8.81677e-05
0.00010714
7.23489e-05
9.2389e-05
7.6206e-05
5.62133e-05
6.8474e-05
8.47064e-05
9.96989e-05
8.95908e-05
6.53101e-05
9.46871e-05
6.7356e-05
9.14183e-05
9.28933e-05
9.70703e-05
9.1487e-05
7.6934e-05
9.03536e-05
9.28204e-05
8.32204e-05
9.34291e-05
0.000102017
8.47849e-05
0.000122641
9.67465e-05
9.27571e-05
9.14021e-05
6.66639e-05
0.000109395
9.99019e-05
7.67253e-05
8.64683e-05
7.79728e-05
0.000109585
9.84452e-05
0.00010162
0.000128426
0.000112557
8.36941e-05
8.29534e-05
8.17635e-05
0.000102411
0.000115179
8.94251e-05
8.02001e-05
0.000108473
9.23971e-05
0.000111467
0.000103811
0.000111053
7.99466e-05
0.000121488
9.77129e-05
6.58092e-05
8.41059e-05
7.99134e-05
8.36604e-05
0.000106765
0.000126384
8.70189e-05
9.23778e-05
8.5384e-05
0.000105573
6.40473e-05
8.1176e-05
9.08167e-05
8.29113e-05
9.16551e-05
9.97196e-05
8.19362e-05
7.38958e-05
8.35182e-05
0.000111469
9.54358e-05
0.000101174
0.000104691
8.34045e-05
0.000101821
9.23464e-05
9.63844e-05
9.0372e-05
9.38318e-05
7.11876e-05
0.000103686
8.78634e-05
8.86423e-05
8.64288e-05
0.000111715
7.05325e-05
8.84439e-05
0.000107445
0.00010143
9.5205e-05
9.35272e-05
7.35357e-05
9.7877e-05
7.53375e-05
9.69324e-05
7.4185e-05
7.90062e-05
9.44062e-05
0.000104695
0.000101734
7.8115e-05
8.90951e-05
8.77324e-05
9.07302e-05
7.83207e-05
9.28889e-05
0.000102217
0.000101747
9.12786e-05
0.000110413
9.51269e-05
8.18777e-05
0.000108156
9.96248e-05
8.12131e-05
8.85467e-05
7.71528e-05
9.08669e-05
7.55504e-05
0.000103337
7.82337e-05
9.17731e-05
8.30591e-05
9.36594e-05
8.64032e-05
9.97413e-05
0.000129298
9.52064e-05
8.75447e-05
7.97075e-05
8.88839e-05
9.74613e-05
9.7433e-05
0.000108262
5.70467e-05
0.000100874
0.000101271
8.94037e-05
8.76335e-05
9.97998e-05
7.30428e-05
7.67915e-05
9.20419e-05
9.69557e-05
9.6601e-05
0.000108514
0.000110711
9.74669e-05
9.54343e-05
0.00011669
9.20284e-05
0.000112362
0.000108284
0.000106086
0.000107337
0.000115405
0.000139206
0.000105044
9.83679e-05
0.000110598
9.29893e-05
8.33861e-05
0.000100273
0.000101231
0.000110633
9.90432e-05
8.41963e-05
8.19359e-05
8.96023e-05
9.19641e-05
9.06654e-05
9.67476e-05
9.2604e-05
0.000105106
9.77825e-05
6.91632e-05
0.000100206
9.65136e-05
8.90845e-05
7.23118e-05
0.000111322
7.81492e-05
9.24423e-05
9.70422e-05
0.000115633
0.000121778
9.15576e-05
9.08473e-05
8.22535e-05
8.52645e-05
8.57397e-05
0.00011679
8.28635e-05
0.000132199
0.000111677
0.000118324
7.73214e-05
6.5986e-05
9.40048e-05
8.05675e-05
9.16351e-05
9.80906e-05
8.48819e-05
8.26139e-05
0.000102412
0.000104565
0.000107432
7.96635e-05
0.000104816
9.4604e-05
8.35277e-05
9.59496e-05
0.000108994
0.000106105
6.83157e-05
0.000122706
0.000104902
8.04455e-05
9.15026e-05
9.74185e-05
9.99545e-05
0.00013936
0.000126067
9.15873e-05
9.08564e-05
0.000115051
8.26539e-05
7.76385e-05
8.51096e-05
0.000108177
8.18675e-05
0.000111453
9.4202e-05
6.53665e-05
7.73198e-05
0.000113865
0.000131395
7.58547e-05
0.000102005
0.000113293
9.33137e-05
9.17388e-05
9.69688e-05
6.86548e-05
9.03599e-05
6.27216e-05
0.000106415
0.000104077
8.88688e-05
0.000104911
7.72459e-05
9.75006e-05
9.10241e-05
9.44106e-05
0.000104463
8.95355e-05
0.000106204
6.9908e-05
0.00010052
0.000114552
0.000107867
0.000105659
0.0001068
7.8777e-05
6.49043e-05
0.000103336
0.000118649
8.54239e-05
9.3353e-05
0.000105459
0.00010148
0.000106883
0.000117036
7.65045e-05
9.80759e-05
6.85472e-05
9.6288e-05
8.56333e-05
6.28292e-05
0.000107678
7.52927e-05
8.74168e-05
0.000116134
8.84523e-05
7.43228e-05
8.86561e-05
9.27006e-05
9.31438e-05
8.46226e-05
0.000112914
9.29127e-05
7.07303e-05
8.23135e-05
0.000100536
0.00010778
9.90247e-05
7.46967e-05
7.20902e-05
7.29397e-05
9.40121e-05
9.58015e-05
9.47828e-05
8.71874e-05
0.000118358
8.11529e-05
9.0467e-05
8.77376e-05
0.000103652
5.92242e-05
8.83649e-05
7.48253e-05
0.000116268
9.2859e-05
0.000111658
9.2018e-05
0.000104851
9.81819e-05
9.24296e-05
9.55213e-05
7.5425e-05
0.000105053
6.95929e-05
8.59e-05
9.46134e-05
8.81458e-05
0.000102496
8.76272e-05
0.000105274
8.46309e-05
0.000101266
8.49452e-05
9.41601e-05
9.6851e-05
9.16101e-05
8.85516e-05
0.000104963
9.74184e-05
8.51453e-05
9.18622e-05
7.18773e-05
0.000103781
9.60448e-05
9.71397e-05
0.000113272
8.67791e-05
8.22881e-05
0.000106383
8.29687e-05
0.000104786
7.93991e-05
0.000124791
8.45487e-05
9.21285e-05
6.34315e-05
9.27841e-05
0.000133093
0.000122517
0.000114889
9.98925e-05
8.15561e-05
9.852e-05
0.000123712
0.000115768
0.000115214
0.000105107
9.64176e-05
0.000103171
9.38272e-05
8.83938e-05
8.58914e-05
0.000102854
0.000109222
0.000107309
7.92505e-05
0.000105317
9.20028e-05
7.15883e-05
9.20632e-05
0.000101066
9.29784e-05
9.65195e-05
8.6862e-05
0.000108339
6.24084e-05
5.51825e-05
5.81799e-05
8.60905e-05
6.21366e-05
0.000110112
5.70543e-05
6.89197e-05
6.94864e-05
7.62205e-05
9.42046e-05
8.95224e-05
0.000114681
0.000105354
8.72198e-05
8.31438e-05
8.62601e-05
9.66972e-05
9.19935e-05
0.000113025
0.000113782
0.000117909
8.56625e-05
0.000111613
8.18384e-05
7.68362e-05
0.000100539
0.00010264
4.47169e-05
8.36889e-05
8.93877e-05
9.40212e-05
0.000102991
8.8388e-05
9.98461e-05
9.87896e-05
9.94907e-05
8.18188e-05
9.69157e-05
8.79807e-05
9.89129e-05
0.000102961
8.00598e-05
0.000119682
0.00010139
0.000109791
9.69876e-05
0.000119364
9.29005e-05
8.63418e-05
0.000109186
9.91854e-05
7.4501e-05
9.98828e-05
0.000108226
9.29267e-05
9.58884e-05
0.000115438
7.79952e-05
9.5634e-05
9.88096e-05
0.000100842
0.000126096
8.69213e-05
0.00010698
0.000103852
9.67781e-05
9.48527e-05
0.000106374
7.75845e-05
8.40204e-05
0.000107274
9.7892e-05
9.69494e-05
0.000121786
8.35493e-05
9.0551e-05
8.88315e-05
9.7927e-05
0.000107888
0.000101619
0.000112174
0.000111822
0.000123323
8.81593e-05
0.000110981
9.76061e-05
8.8035e-05
0.000106714
7.73276e-05
6.95437e-05
8.56764e-05
9.57007e-05
0.000103363
0.000115796
0.000103934
9.9323e-05
9.29289e-05
7.78636e-05
8.40689e-05
0.000106242
9.84797e-05
9.43286e-05
8.63464e-05
0.000118842
0.000106074
8.77932e-05
9.40535e-05
9.23023e-05
8.93284e-05
0.000101332
8.72453e-05
0.000109851
8.59042e-05
8.79284e-05
9.78056e-05
0.00010532
9.17307e-05
8.24643e-05
8.83891e-05
0.000107102
9.19014e-05
8.04255e-05
0.000120028
0.000111217
0.00010563
8.90768e-05
7.3548e-05
0.000101396
9.97924e-05
7.91304e-05
9.6119e-05
7.22828e-05
0.000126972
0.000100773
0.000110803
0.000102541
4.94868e-05
8.97653e-05
7.98488e-05
7.20437e-05
0.000112016
7.66825e-05
6.43411e-05
9.8894e-05
8.63113e-05
6.28041e-05
8.06591e-05
0.000102378
0.00010403
9.5647e-05
6.84276e-05
9.43893e-05
0.000113631
8.75467e-05
9.74425e-05
9.06335e-05
0.000100874
8.90359e-05
7.58795e-05
8.7048e-05
0.000110802
0.000104663
7.19767e-05
8.80338e-05
8.67898e-05
0.000115615
8.93059e-05
8.60287e-05
0.000169042
8.70662e-05
0.000104109
0.000177879
8.27772e-05
8.96451e-05
9.19764e-05
8.85486e-05
8.57263e-05
7.51437e-05
9.14603e-05
9.76027e-05
7.52479e-05
8.66218e-05
0.000111857
4.10324e-05
9.26751e-05
0.000113764
8.31378e-05
0.00012044
0.000103265
9.21708e-05
9.07855e-05
8.77282e-05
9.49353e-05
9.49776e-05
8.86735e-05
7.24302e-05
0.000102183
9.23763e-05
0.000116397
0.000106827
0.000106574
0.000102187
9.33848e-05
8.98316e-05
9.27846e-05
8.83232e-05
7.61797e-05
9.56585e-05
9.2242e-05
9.28571e-05
9.44342e-05
0.000107435
0.00010885
9.58565e-05
6.55283e-05
0.000101442
8.54517e-05
9.75321e-05
9.58222e-05
6.33077e-05
9.971e-05
6.53701e-05
9.04791e-05
8.95436e-05
6.3461e-05
9.27908e-05
9.24674e-05
8.75363e-05
9.72521e-05
0.000109849
0.000105898
0.000114992
8.68906e-05
9.4518e-05
0.000100086
0.000123648
0.000115921
0.000102018
8.52544e-05
8.88338e-05
0.000104768
0.000110302
0.000113057
0.000106471
8.39993e-05
0.000108611
9.39518e-05
9.2719e-05
0.000114241
7.83355e-05
9.79939e-05
7.58215e-05
9.5773e-05
8.55231e-05
7.50534e-05
0.000100274
8.8856e-05
9.80667e-05
0.000102411
8.35857e-05
7.65921e-05
9.32558e-05
8.27958e-05
8.07638e-05
7.49965e-05
0.000107808
7.67569e-05
9.0395e-05
7.68056e-05
6.94749e-05
8.54298e-05
6.3254e-05
9.26155e-05
9.80375e-05
9.14608e-05
8.42393e-05
0.000122753
0.000101176
0.000107611
7.88222e-05
9.72571e-05
8.17793e-05
0.00010799
0.00012165
7.13965e-05
8.46832e-05
9.91289e-05
6.53354e-05
6.53722e-05
7.14834e-05
0.000101607
9.59323e-05
9.89597e-05
8.72541e-05
9.80732e-05
8.89744e-05
7.10276e-05
0.000101559
7.23369e-05
9.69206e-05
8.90785e-05
8.65179e-05
0.00011546
9.4383e-05
9.08295e-05
8.05159e-05
6.62356e-05
0.00011294
9.4799e-05
7.28576e-05
0.000108231
9.45954e-05
7.33376e-05
7.35145e-05
7.05765e-05
6.56909e-05
9.29432e-05
8.45306e-05
8.61949e-05
0.00011715
0.000100394
0.000110671
5.27634e-05
8.97421e-05
8.23471e-05
0.000109996
8.85496e-05
9.72728e-05
7.01971e-05
9.88418e-05
9.45702e-05
8.63904e-05
0.000122671
9.87349e-05
9.36695e-05
9.37721e-05
0.000105137
8.07844e-05
7.32482e-05
0.000113917
9.89911e-05
9.4393e-05
9.99782e-05
0.000103416
7.20854e-05
9.01411e-05
8.75526e-05
0.000100752
6.59066e-05
9.19073e-05
9.85369e-05
0.000104508
0.000106528
9.70744e-05
6.04128e-05
7.8838e-05
0.000104829
0.000105984
0.000116942
6.91027e-05
0.000105955
7.05624e-05
8.35041e-05
7.81615e-05
9.55258e-05
9.00192e-05
7.06018e-05
0.000102335
8.84913e-05
7.24703e-05
8.55503e-05
9.26857e-05
8.799e-05
0.00011289
8.30757e-05
7.95254e-05
8.41311e-05
9.82101e-05
9.63347e-05
8.83477e-05
9.16111e-05
9.3916e-05
9.78533e-05
8.90143e-05
7.72738e-05
8.9075e-05
0.00010666
9.99665e-05
6.70578e-05
7.08435e-05
7.95503e-05
9.42181e-05
9.01983e-05
8.10934e-05
0.000105638
8.26838e-05
0.000106744
6.42918e-05
0.000103255
7.85913e-05
0.000100239
0.000102461
8.029e-05
8.6861e-05
0.000119901
8.53832e-05
0.000122956
9.42778e-05
6.50921e-05
0.000103227
0.000109951
9.74586e-05
8.33312e-05
8.63764e-05
7.04214e-05
0.000106074
7.20885e-05
7.16091e-05
9.3438e-05
8.22399e-05
6.67941e-05
8.96401e-05
9.18708e-05
7.2725e-05
8.12099e-05
5.88349e-05
6.4889e-05
6.52206e-05
7.7754e-05
9.11604e-05
9.73792e-05
9.7302e-05
7.65091e-05
9.51412e-05
8.80818e-05
9.4136e-05
0.000120671
0.000112944
0.000101528
9.74668e-05
8.55563e-05
7.67134e-05
9.95104e-05
9.23576e-05
0.000115814
0.000110921
9.18739e-05
8.64254e-05
9.57018e-05
7.0491e-05
9.29857e-05
9.35916e-05
9.88785e-05
6.3698e-05
8.98419e-05
8.39693e-05
9.73446e-05
0.000100716
8.95901e-05
8.70479e-05
7.89884e-05
8.59484e-05
9.35493e-05
7.97745e-05
9.41632e-05
8.0734e-05
0.000113916
8.2238e-05
9.15935e-05
0.000103885
0.000104863
9.56536e-05
9.27118e-05
8.26581e-05
9.57091e-05
8.68423e-05
8.59586e-05
7.03772e-05
7.11428e-05
9.49264e-05
6.52658e-05
6.93414e-05
9.72486e-05
0.000109136
0.000108948
7.28396e-05
0.000118864
9.54006e-05
0.000106928
9.10345e-05
8.48385e-05
0.00010102
8.35218e-05
8.5918e-05
0.00010758
9.33217e-05
0.000119059
9.53413e-05
9.81547e-05
8.94899e-05
0.000106961
9.24541e-05
8.88484e-05
0.000104848
9.45356e-05
9.2726e-05
9.40623e-05
9.23071e-05
9.43162e-05
9.36792e-05
8.62172e-05
6.15673e-05
7.6608e-05
0.000110577
8.3814e-05
9.96424e-05
0.000109159
8.93389e-05
9.15802e-05
8.33889e-05
0.000103018
8.64994e-05
9.74668e-05
0.000102715
9.69958e-05
9.49711e-05
9.28313e-05
6.74956e-05
8.25327e-05
9.6064e-05
6.78755e-05
9.78025e-05
9.37008e-05
7.5879e-05
8.3103e-05
0.000106642
0.000104846
0.000128081
9.18258e-05
0.000120382
5.04024e-05
6.82434e-05
0.000100267
9.45719e-05
8.70069e-05
9.60594e-05
0.000106643
9.01086e-05
6.62999e-05
0.000103755
0.000120592
0.000104254
0.000117398
9.26128e-05
9.95159e-05
9.61426e-05
0.00010521
0.000101815
9.96946e-05
0.000104643
0.000100778
0.000102045
9.16205e-05
9.99372e-05
8.78526e-05
9.7721e-05
0.000102379
9.33227e-05
6.24258e-05
7.32687e-05
8.86036e-05
0.000100619
8.92074e-05
9.71881e-05
9.29406e-05
0.000103275
5.86703e-05
8.55271e-05
0.000100748
7.5044e-05
8.80154e-05
0.000119631
8.17501e-05
9.36059e-05
0.000120118
6.70044e-05
8.02428e-05
6.54636e-05
8.4227e-05
0.000111031
0.000107509
8.37041e-05
7.58528e-05
9.2063e-05
0.000123025
0.000106174
9.88332e-05
0.000110831
7.84992e-05
9.83986e-05
0.000125884
6.64674e-05
9.89489e-05
8.96828e-05
0.000122158
7.83089e-05
9.18912e-05
7.29095e-05
0.000102375
0.00010519
9.86323e-05
0.000121611
8.93408e-05
9.04811e-05
9.81745e-05
0.000106591
9.43482e-05
7.46527e-05
0.000100805
8.92124e-05
8.99763e-05
8.45286e-05
9.71946e-05
9.39851e-05
8.38355e-05
7.63654e-05
9.98299e-05
7.71539e-05
0.000105317
0.000117232
0.000115151
9.5593e-05
9.72712e-05
9.35903e-05
0.000114896
9.51028e-05
9.61416e-05
9.4932e-05
7.49552e-05
9.02722e-05
9.84979e-05
8.746e-05
8.68191e-05
9.69605e-05
8.40775e-05
8.78502e-05
8.32842e-05
7.47174e-05
8.93696e-05
0.000125615
7.29117e-05
8.87172e-05
8.3658e-05
9.28201e-05
0.000107405
0.000107715
0.000101481
8.57334e-05
9.36269e-05
8.77476e-05
8.48597e-05
8.9986e-05
8.65754e-05
8.29828e-05
9.54309e-05
0.00010186
8.72348e-05
8.24467e-05
8.34391e-05
9.09958e-05
0.000103828
8.12736e-05
8.58188e-05
8.24041e-05
8.77788e-05
9.08659e-05
7.95624e-05
8.97185e-05
9.66973e-05
7.55807e-05
8.71075e-05
0.000106772
0.000106282
8.7687e-05
9.7036e-05
8.02699e-05
5.81263e-05
0.000115295
8.26232e-05
9.30124e-05
8.42791e-05
9.3371e-05
0.00011896
9.76503e-05
0.000111567
0.000119618
9.48578e-05
8.98072e-05
9.72024e-05
7.96313e-05
9.01239e-05
8.11761e-05
7.43079e-05
7.26229e-05
0.000103722
9.0606e-05
9.35269e-05
0.000106979
0.000104919
7.60378e-05
8.60638e-05
8.23e-05
7.48227e-05
8.97795e-05
0.000101691
8.56645e-05
8.74398e-05
9.0706e-05
9.47375e-05
9.68417e-05
7.69879e-05
8.92307e-05
0.000104357
8.76169e-05
9.41702e-05
9.62354e-05
9.69537e-05
7.29663e-05
9.11074e-05
0.000118369
8.44831e-05
7.46686e-05
8.45081e-05
9.23921e-05
7.88845e-05
9.65769e-05
8.886e-05
9.95434e-05
8.78931e-05
7.57765e-05
8.93026e-05
9.6028e-05
5.53585e-05
8.47738e-05
8.78385e-05
8.78525e-05
7.89e-05
0.00010943
9.2102e-05
9.65283e-05
9.43038e-05
8.60853e-05
0.000115468
8.56734e-05
8.61148e-05
8.03332e-05
9.71848e-05
6.95847e-05
0.000116377
8.49853e-05
9.92502e-05
7.48711e-05
9.78411e-05
7.29629e-05
8.16724e-05
0.000106789
9.35431e-05
9.47188e-05
9.80671e-05
7.59004e-05
8.1528e-05
0.000118977
8.09483e-05
7.36623e-05
8.72632e-05
9.93538e-05
9.63586e-05
9.44512e-05
9.78837e-05
9.69057e-05
9.49121e-05
8.85684e-05
0.000100378
9.51606e-05
0.00011325
9.13473e-05
9.57798e-05
9.76631e-05
8.66499e-05
0.000100046
9.67032e-05
0.000101281
8.99077e-05
0.000102618
9.40672e-05
9.60591e-05
0.000106197
8.82478e-05
8.99623e-05
9.62472e-05
0.000133941
7.78442e-05
0.000101112
0.000111264
0.000120909
9.72105e-05
0.000110348
0.000106896
0.000103616
9.13532e-05
0.000103038
6.44487e-05
0.000120671
0.000110879
0.000103071
8.96576e-05
9.72128e-05
0.000112731
7.72468e-05
0.000104987
6.09557e-05
0.000102011
0.000107006
7.37636e-05
9.15369e-05
8.38624e-05
0.000122237
8.72987e-05
8.84303e-05
5.11611e-05
4.94707e-05
0.000103473
7.16473e-05
5.56149e-05
8.42948e-05
7.93886e-05
7.49997e-05
9.40408e-05
5.0077e-05
9.2881e-05
0.000114283
0.000113533
0.000104656
5.87219e-05
9.1673e-05
7.7752e-05
0.000105729
8.27519e-05
0.00013064
7.73321e-05
9.03991e-05
0.000106178
7.12859e-05
8.48026e-05
7.90994e-05
7.66071e-05
8.72067e-05
7.51593e-05
9.70655e-05
0.000116944
0.000118596
7.17025e-05
8.14108e-05
7.87485e-05
0.000101544
6.61928e-05
7.4148e-05
9.22682e-05
9.58344e-05
0.00010358
0.000110895
9.06623e-05
0.000127163
9.40495e-05
0.000102032
0.000104649
9.13273e-05
9.29703e-05
0.000105537
8.54887e-05
9.09912e-05
8.3287e-05
9.10393e-05
9.60149e-05
0.000116757
7.16044e-05
0.000104273
8.53286e-05
7.13008e-05
9.02049e-05
7.22367e-05
6.94846e-05
9.36316e-05
8.73985e-05
7.20975e-05
9.0048e-05
8.73299e-05
9.61854e-05
7.07994e-05
0.000102187
9.79599e-05
7.43528e-05
0.000107104
0.000100328
8.38025e-05
0.000108561
9.95379e-05
7.51895e-05
0.000106883
8.81958e-05
7.20413e-05
9.11752e-05
0.000104652
8.84051e-05
7.20591e-05
0.000107509
9.96431e-05
9.78643e-05
0.000103447
9.74093e-05
9.75937e-05
0.000109716
8.09226e-05
0.000115955
0.000100652
8.26239e-05
0.000112284
0.000118864
0.000101233
0.000103975
9.17128e-05
0.000105479
8.72484e-05
0.000104391
7.7804e-05
9.24517e-05
9.88857e-05
9.92469e-05
9.88429e-05
9.97879e-05
0.000107435
0.000100983
7.11903e-05
0.00010615
0.000102677
0.000132675
9.53159e-05
8.85891e-05
0.000106809
5.43612e-05
8.80044e-05
8.64162e-05
9.93585e-05
7.11163e-05
9.96574e-05
0.000115231
8.92507e-05
9.74087e-05
0.000107949
6.14356e-05
9.21168e-05
9.72676e-05
9.88403e-05
9.25985e-05
0.000123218
0.000115077
6.01914e-05
0.000128559
0.000111426
5.88414e-05
9.03941e-05
0.00010669
5.61862e-05
9.7853e-05
8.83791e-05
0.000110642
9.95291e-05
8.15501e-05
9.06603e-05
5.83646e-05
0.000103319
9.91041e-05
5.86736e-05
0.000116928
0.000101478
6.34443e-05
0.0001048
9.97461e-05
0.000121499
9.58018e-05
9.7161e-05
9.87286e-05
9.16995e-05
6.97099e-05
0.000104352
9.77281e-05
7.02164e-05
0.0001024
0.000101131
6.65039e-05
8.68406e-05
9.09312e-05
8.73738e-05
9.61866e-05
9.46281e-05
9.32365e-05
0.000117602
8.97181e-05
0.000103501
9.79351e-05
6.19644e-05
0.00011694
9.81905e-05
6.24046e-05
8.32959e-05
6.62364e-05
0.000117158
8.9605e-05
0.000116514
9.67988e-05
5.80984e-05
0.000110152
6.19467e-05
0.00010586
9.23996e-05
6.325e-05
0.000103232
9.79963e-05
0.000102441
6.74604e-05
0.000107231
9.71923e-05
6.06779e-05
8.488e-05
9.22782e-05
6.6753e-05
6.27239e-05
9.18071e-05
0.000117722
7.48127e-05
9.27731e-05
6.01802e-05
8.81308e-05
0.000121411
0.000109732
7.1189e-05
0.000102977
7.84378e-05
6.37702e-05
0.000110961
9.52329e-05
0.000107343
6.23422e-05
0.000103512
0.000103048
0.000100746
0.000110543
9.74719e-05
0.000107032
5.98671e-05
9.13807e-05
0.000118282
6.70649e-05
6.50779e-05
9.57801e-05
9.14426e-05
8.93877e-05
0.000106905
0.000144634
5.63235e-05
8.73348e-05
8.01894e-05
9.7013e-05
6.4915e-05
5.75459e-05
5.86028e-05
9.54454e-05
6.126e-05
9.45568e-05
6.36488e-05
6.56828e-05
9.38658e-05
0.000101525
0.000101562
9.88265e-05
6.87302e-05
0.000109549
0.000101515
0.000106987
9.15428e-05
9.2496e-05
0.000122089
0.000120143
0.000105755
0.000101109
7.01888e-05
0.000115399
0.00010652
0.000110244
0.00010649
6.03469e-05
5.94231e-05
8.63724e-05
9.44974e-05
8.76377e-05
9.66598e-05
8.14526e-05
9.34961e-05
8.60259e-05
7.17501e-05
7.3043e-05
8.54113e-05
6.79003e-05
9.59479e-05
9.00712e-05
9.66977e-05
7.23146e-05
9.2092e-05
9.93024e-05
8.85981e-05
9.9585e-05
0.000101551
9.35071e-05
6.64411e-05
0.000106179
9.78279e-05
8.71322e-05
0.000117854
6.32454e-05
9.45352e-05
0.000101707
9.85604e-05
8.37339e-05
9.90181e-05
9.1202e-05
8.97836e-05
7.1587e-05
9.05165e-05
0.00010964
0.000104178
7.75966e-05
6.8631e-05
9.19395e-05
6.38184e-05
7.90864e-05
0.000107557
0.000115107
8.393e-05
0.000119477
9.77889e-05
9.80567e-05
0.000101036
0.000122613
0.000115201
8.16541e-05
6.41719e-05
0.000105082
8.2838e-05
6.43101e-05
0.000107059
0.000108722
0.0001208
8.65877e-05
9.9549e-05
0.000110171
9.1036e-05
9.34839e-05
9.63364e-05
6.61847e-05
0.000104215
8.38427e-05
7.58902e-05
0.000113993
0.000105724
0.000117488
6.74769e-05
9.65814e-05
0.000129127
9.35069e-05
7.01574e-05
7.95705e-05
8.1023e-05
9.32477e-05
6.77174e-05
7.9023e-05
8.67688e-05
6.39988e-05
9.9533e-05
0.000106526
8.9193e-05