/*--------------------------------*- C++ -*----------------------------------*\
| =========                 |                                                 |
| \\      /  F ield         | OpenFOAM: The Open Source CFD Toolbox           |
|  \\    /   O peration     | Version:  v2012                                 |
|   \\  /    A nd           | Website:  www.openfoam.com                      |
|    \\/     M anipulation  |                                                 |
\*---------------------------------------------------------------------------*/
FoamFile
{
    version     2.0;
    format      ascii;
    class       volScalarField;
    location    "0.5";
    object      p_rgh;
}
// * * * * * * * * * * * * * * * * * * * * * * * * * * * * * * * * * * * * * //

dimensions      [1 -1 -2 0 0 0 0];


internalField   nonuniform List<scalar> 
108993
(
0.00824673
0.00109105
0.0153699
0.00717572
0.0082022
-0.00192733
-0.000232953
0.00681126
0.016715
0.00860757
0.0137743
0.0138885
0.00790888
0.0126271
0.00916631
0.00833239
0.00788586
0.00915122
0.00758777
0.0010587
0.00785637
0.00862028
0.00268818
0.00885727
0.00772867
0.000214366
0.0242271
0.00134218
-8.98494e-05
0.00840509
0.0327149
0.0128306
0.0231813
0.00847004
0.00594857
0.00833482
0.0268833
0.0108922
0.00133798
-0.000583584
0.00267719
0.0176959
0.0129329
0.00683418
0.00648034
-0.000978165
0.0243216
-0.0004894
-0.00158906
0.0017216
0.0183754
0.00464974
0.00162972
0.0208665
0.00858828
0.00970761
0.0167732
0.00847363
0.0116376
0.00841986
0.00900269
0.00862106
0.00859636
0.000955751
0.00683217
0.00059727
0.00723879
0.00899261
0.0117788
0.00458009
0.00901722
0.00857485
0.0101445
0.00867806
-0.00141103
0.0351296
0.000938872
0.00793549
0.0144117
0.00745298
0.0109253
0.0104941
0.0123539
0.0148901
0.00920569
0.0128898
0.0152373
0.0136368
0.00774296
0.00753969
0.00781224
0.0305122
0.00782409
0.00804981
0.00794796
0.0128036
0.028112
0.0130485
0.0290421
0.0259321
0.00815428
0.00895875
0.0103623
0.0124087
0.0113365
0.00786736
0.00931998
0.00320792
0.0110974
-0.00053
0.00467132
0.00781923
0.00370621
0.00424246
0.0164527
0.0016453
0.00832951
0.0149492
0.00879642
0.0274697
0.0109278
0.008892
0.00122781
0.0147292
0.0102034
0.00907944
0.00277205
0.0115027
0.00857826
0.00712991
0.0128346
0.0078279
0.0131513
0.00449354
0.0174177
0.0168786
0.0092321
0.0135545
0.00896121
0.0125289
0.0149989
0.0321668
0.00780551
0.00841749
0.00770451
0.010754
0.0119202
-0.00183087
0.0148399
0.00223987
0.0022889
0.000123831
0.00272839
0.00240211
0.0137237
0.0035295
0.0117164
0.00333703
0.0100641
0.00478577
0.00236333
0.00366014
0.0476106
0.00873915
0.013113
0.00414469
0.0076204
0.000968331
0.00100819
0.0157443
0.00953344
0.0100858
0.00492135
0.015754
0.000182245
0.00113076
0.00380028
0.00101384
0.0157348
0.0161625
0.0100565
0.0132437
0.00627533
0.0148159
0.0124841
0.0113171
0.00684029
0.0109005
0.0105845
0.0147806
0.0144724
0.00863324
0.014015
0.0034035
0.0150779
0.0138018
0.00269056
0.012704
0.0120162
0.0148865
0.00780589
0.00373749
0.00829298
0.000929062
0.00119683
0.00160833
0.0185105
0.000319657
0.0141318
0.00225125
0.00322469
0.012173
0.00374923
0.000182832
0.00216139
0.0117142
0.0100791
0.0195649
0.00597023
0.0210783
0.00115633
0.00214178
0.0113805
0.00360989
0.000767383
0.00103281
0.00349145
0.0190103
0.00510392
0.00184707
0.00189352
0.00965746
0.00104148
0.00117075
0.0180819
0.0280071
0.012457
0.00947626
0.00179033
0.00365305
0.0331532
0.0164237
0.00701899
0.00236163
0.00617977
0.00865392
0.000197437
0.00135774
0.00398055
0.0111224
1.23558
0.00691624
0.0162102
0.0155928
0.00469314
0.00277177
0.00457851
0.0139657
0.020961
-0.00155798
0.0214658
-0.00162582
0.010062
0.00870919
0.0104455
0.00190622
0.0221961
-0.000769999
-0.0015228
0.0142485
0.00685801
0.0165861
9.89393e-06
0.00244801
-0.00178566
0.0152865
0.0290291
0.000819561
0.0142211
0.00154941
0.00164966
-0.000719825
-0.00069668
0.00141287
0.0135732
0.0111462
0.00805457
0.00170334
0.0131989
-0.00177973
0.0110958
0.0253197
0.00174566
0.0246767
0.00170316
0.0203474
0.0275906
0.0228585
0.0064216
0.0069915
0.00151235
0.00175209
0.0103295
0.00690503
0.0159977
-0.000502468
0.000606225
-0.00120948
-0.000354403
0.000229548
0.00743756
0.00936514
0.0106898
0.00873433
-0.000175954
0.001744
0.000881994
0.011118
0.000371703
0.0170387
0.00187406
0.000900084
-0.000967721
-0.00113823
0.0125269
0.00371422
0.00271868
0.00195059
0.0184229
0.0135326
0.00071763
0.0017589
0.00376431
0.0197395
0.000991616
0.00839884
0.018314
0.00869094
0.0155277
0.0139234
0.0171784
0.000987863
0.0015512
0.0110589
0.0121103
0.00865911
0.0187174
0.00851732
0.0185616
0.0183967
0.0208915
-0.00186551
-0.0011188
-0.0015817
0.000776801
0.0112531
0.0126803
-0.0013557
0.0139121
0.00103294
0.0118856
0.00148383
0.0189074
0.0186792
-0.00142421
0.00203704
0.0193905
0.0131137
0.0116986
0.00291616
0.00314298
0.0117982
0.0183665
0.00256775
0.0020581
0.00230114
0.0121301
0.0167101
0.00195801
0.014799
0.002073
0.00202319
0.00182884
0.00809068
0.00863561
0.00322398
0.010806
0.00202861
0.00164036
-0.000931739
0.00211092
0.00322242
0.00215236
0.0119059
-0.000536267
0.00177036
0.00259916
0.0158426
0.0085374
0.0166157
0.00189137
0.000675089
0.000929088
0.0182105
0.00106443
0.00323632
0.00323487
0.0118778
0.0138389
0.00225978
0.0116088
0.00196124
0.00279929
0.00864228
0.0133217
0.0186443
0.00257097
0.00530529
-3.15963e-05
0.00698864
0.00231997
0.00149118
0.00237272
0.000955462
0.00802914
0.00225671
0.00942311
0.00167231
0.00239869
0.0067236
0.00255094
0.000170525
0.00247562
0.0100013
0.0174057
0.00929709
0.000374328
0.00108079
0.00134899
0.0261617
0.0108466
0.0179137
0.0158721
-0.00186226
0.00361515
0.00318136
0.00293155
0.00496691
0.0178806
-0.00203606
0.0125246
0.00776482
0.0179038
0.0100451
0.00140226
0.00957078
0.0112509
-0.0016849
0.0147595
0.0181597
0.00111866
0.0148678
0.00111101
0.00198545
0.00723255
0.016596
-0.00176145
0.00113088
0.0163022
0.0154103
0.00499056
0.00857409
0.0230453
0.0027067
0.000276493
0.00894108
0.0296113
0.00259418
-0.0014825
0.00838865
0.0111347
0.0234213
0.0212358
0.0200031
0.0125233
0.0155515
0.015954
0.0161023
0.00511089
0.00867638
0.0110705
0.0100947
0.00832824
0.0152805
0.00776098
0.00843382
0.0123705
0.01837
0.0179526
0.00110291
0.00981423
0.0247379
0.027732
0.0175352
0.00667454
0.00152173
0.0188208
0.0307834
0.00218592
0.0186306
0.00955527
0.00284369
0.0326017
0.0121853
0.0186425
0.00183234
-0.000364649
0.0187294
-0.0010773
0.000321014
0.000178184
6.91156e-05
0.00263897
0.00242023
0.000271233
0.00721509
0.00155073
0.0166774
0.00707542
0.00231525
-0.00164574
0.0085736
0.0073265
0.0117793
0.012001
0.0169839
0.00360621
0.0130567
0.00841988
-0.00119346
0.00822749
-0.0020692
0.00665503
0.00923764
0.0146224
0.0149089
0.00916572
0.00718152
0.0147758
0.0201498
0.00147421
-0.00152969
0.00080141
0.00940348
0.0107882
0.00817907
0.0361137
0.00264844
0.00245989
0.000644103
0.00977091
0.0529132
0.0155118
0.00263437
0.00234849
0.00149048
0.0111272
0.0361006
0.0026531
0.0026663
0.0148369
0.00223774
0.00249251
0.00251763
0.00181364
0.00312349
0.011946
0.00217051
0.00251941
0.00194156
0.0118418
0.0110355
0.0153097
0.00867355
0.00901134
0.00731189
-0.00069679
0.00246605
0.012871
0.00115927
0.002862
0.00869585
-0.00121873
0.017991
0.00247609
0.0121017
0.0174106
0.00851301
-0.000510579
0.0082482
0.0167863
0.0135936
0.00239063
0.0109028
0.0121838
0.00860353
0.00239791
0.00850418
0.0107414
0.0141537
0.00446968
0.0136961
0.00663063
0.0142759
0.00266156
0.0174047
0.0103406
0.00845935
0.00131701
0.0207366
0.0046089
0.021034
0.0109727
-0.00101614
-0.00035847
0.00932573
0.0233753
0.000940795
-0.000665536
0.0098745
0.0020752
0.00115124
0.00116855
0.00357973
0.0101326
-0.000729895
0.00881012
0.0021065
0.00738725
0.00466735
0.00889563
0.00462942
0.0188275
0.00320208
0.0228044
0.00999424
0.0121466
0.00424061
0.00738012
0.0100053
0.010253
0.0075409
8.74728e-05
-0.000913562
0.00417343
-0.00131916
0.00676616
-0.000695643
0.00296802
-0.000676499
-0.000915878
-0.000318286
0.0106182
0.0242765
0.00173213
0.00184361
-2.25318e-05
0.00978909
0.00048708
-0.000607831
0.00972343
0.00203451
0.00428964
-0.00102546
-0.000759292
0.00840531
0.00364909
0.005201
-0.000473687
-0.00104817
0.00045124
0.00230023
0.00721845
0.0101951
-0.0015343
0.0100355
0.00424717
0.00508004
0.00537551
0.00288076
0.0114834
0.0158952
0.00487806
0.00848225
-0.000673791
0.00301979
0.0061257
0.000921779
0.0065817
0.00233237
0.00343762
0.0285455
0.000897369
0.000864884
0.00893484
0.00727672
0.0064958
0.00280496
0.0218513
0.000949745
0.0035169
-0.000914624
0.000913177
0.010455
0.00193181
0.0115739
0.00443652
0.00784614
0.00697665
0.00455984
-0.0011752
0.00981033
0.00365066
0.00872578
0.0094455
0.00923999
0.00352
0.00431871
0.000976461
0.00886666
0.00477855
0.00974765
0.00819357
0.00911502
0.01257
0.00716481
0.00139687
0.000999488
0.0163131
-0.00033427
0.0133528
0.00887919
-3.69358e-05
0.000841319
0.0114098
0.00340035
0.0107382
0.0106077
0.0110579
0.00804936
0.0115231
0.00105576
0.000961306
0.0116171
0.000950847
0.00332941
0.00100808
0.00945646
0.00826286
-0.00157902
0.0107267
0.00110507
0.0115072
0.0130454
0.00391887
0.00227749
-0.000682555
-0.000611185
0.00814928
0.017971
0.0128738
0.00295935
0.0169362
0.00141305
0.0015879
0.0115059
0.0126844
0.00266596
0.00138728
0.00999077
0.0184283
0.00612801
0.0126447
0.0126955
0.00331536
0.00117381
0.00316622
0.00687883
0.015437
0.00372247
0.0204289
-0.000373253
0.0217773
0.0147499
-0.000856532
0.00979503
0.00199665
0.0033162
0.00211881
0.00842903
0.00324713
0.00898318
0.00776516
0.0125172
0.00956306
0.0306643
0.0116292
0.0118187
0.0135473
0.0167843
0.013412
0.00260166
0.0189866
0.003944
0.0153565
0.00556005
-0.000572199
0.0129891
0.00327413
-0.00042332
0.00297322
0.0105441
0.0118172
0.0117013
0.00300685
0.00344837
-0.000467923
0.0050371
0.00175105
-0.000302047
-0.000113157
0.000266147
0.00626086
0.0138153
0.00621302
-0.000630669
0.0135614
0.00379003
-0.000507418
0.0134533
0.00877546
0.0121389
0.000613849
0.0120625
-0.000172503
0.00500304
0.0127143
0.0131164
0.00259262
0.0130711
0.00263766
0.0121845
0.00255953
0.0128137
0.00308363
0.00295292
0.00805917
0.00217658
0.0129546
0.00296736
0.00292501
0.00502353
0.00326073
-0.000953424
0.000913054
0.000759674
0.0127992
0.00752928
0.0109265
0.00786891
0.00868734
0.0169244
0.00784438
-0.00108996
0.0172114
0.00808569
0.00554606
0.00244217
0.000745649
0.00160591
-0.000303789
-0.000871849
0.00339898
0.00468612
0.00267339
0.00378494
0.00785975
0.00353928
-0.0010714
0.00248178
0.00960493
0.0165776
0.00849761
0.00921459
0.0032537
0.000119111
0.00899435
0.00783408
0.0014249
0.00839919
0.00583825
0.00314462
-0.00101908
0.00395971
0.00110938
0.00985071
0.00332216
0.00257109
-0.0013846
7.23256e-05
0.0069203
0.0118863
0.00938363
0.00419698
0.00350429
0.0126738
0.00365632
0.00743509
0.00937051
-0.00123752
0.0127402
0.0100494
0.00286817
-0.0010379
0.00320512
0.0107263
0.00123185
0.0042797
-0.000943869
0.00171821
0.000984308
0.00170374
0.00543251
0.00741329
0.0103452
0.010011
0.013601
0.00202344
0.0095356
0.00228331
-0.00079544
0.00087162
0.00298747
0.00317577
0.00418784
0.00173319
0.00732377
0.00346788
0.00419081
0.0011127
-0.000457419
0.0106034
0.00102062
0.00170955
0.0119235
0.00608009
0.00132745
0.0102111
0.00718646
0.0103794
0.00291007
0.00365495
-0.00163748
0.00426034
0.00715326
0.00766315
0.00824738
0.00823485
0.0025009
0.00312221
0.00748931
0.00192015
0.00749106
0.0257982
-0.00194384
0.00725867
0.0483138
0.0100888
0.0126428
0.0071606
0.0128541
0.0159584
0.0130605
-0.00177524
0.0138672
0.0131771
-0.00135196
0.00421665
0.0128767
0.0127503
0.00967965
0.00922974
-0.000734035
0.015729
-0.000536826
-0.00199992
-0.0017349
-0.00169738
0.00178701
0.00519835
0.00221898
0.0130011
0.00810413
0.00375205
0.00624603
0.00381295
0.00140933
0.0130621
0.00117489
0.0130795
0.00247944
0.00685188
0.00219947
-0.00182455
0.012797
0.0129162
0.0106572
0.0114553
0.00341747
0.012529
-0.00176227
0.0143077
0.0245053
0.00139779
0.0143162
0.00343645
0.00163977
0.0141981
0.0034551
0.00500847
0.00239559
0.00329881
0.0141727
0.0176312
0.00314103
0.0035244
0.0137928
0.0154438
0.0271913
0.00260235
0.0122106
0.00335633
0.0169217
0.00720308
0.00919628
0.0132523
-0.000954738
0.00390295
0.00844617
0.00279933
0.000370584
0.0102838
0.00792316
0.00341302
-0.00125204
-0.000618405
0.0110024
0.0109936
0.00457803
0.00816719
0.00287449
0.00745114
0.00282989
0.0113136
0.00278376
0.00744513
0.0130346
0.0073599
0.00412013
0.00781061
0.00782576
0.00573494
0.00523533
0.00539707
0.0176975
0.00106186
0.00123701
0.0198107
0.00101435
0.00875853
0.00857822
0.00459641
0.000139637
0.000415567
0.00809698
0.0142226
0.0189397
0.0055457
0.00447903
0.000982884
0.00793755
0.0115892
0.0116613
0.00120473
0.0108557
0.00247264
0.00745387
0.0154238
0.00122535
-0.00153472
0.0126815
0.0128407
0.00313211
0.00757871
0.00277228
0.0027654
0.00537911
0.00823767
0.0125947
0.00126416
0.0126597
0.0127849
0.00115892
0.00754956
0.0113902
0.0117392
0.0186704
0.0129781
0.0131264
0.0109264
0.0144586
0.000464701
0.0204874
0.0118074
0.00729811
0.0133533
0.00433541
0.00400483
0.00387722
-0.000300074
0.0134987
0.00914841
0.0100766
0.00919937
0.00817245
0.0137272
-0.00111776
0.014717
0.0140362
0.00494331
0.012454
0.00334584
-0.00119098
-0.00129175
0.0138149
0.0118567
0.00268367
0.00269431
0.012202
0.0108702
0.0211991
0.00297524
0.00259491
0.0206044
-0.00216914
0.0327781
0.00131068
0.000793001
0.0130233
0.00101153
-0.000495913
0.00731807
-0.00132413
-0.00190859
0.00287024
0.00280604
0.00306473
0.0018562
0.00288893
0.00794704
0.000310975
0.000870996
0.00207792
0.00703998
0.00469823
0.00324191
0.0032427
0.00324067
0.00275351
0.00348768
0.0353735
0.0068993
0.0109632
0.00637793
0.00687924
0.00323773
0.00943885
0.00254625
0.0125582
0.00256238
0.0111752
0.0105037
0.00171268
0.00112262
0.00702393
0.0219382
0.0215743
0.00679483
-0.00204069
0.0332511
-0.00192364
0.00766182
-0.00171227
0.00367901
0.00638073
0.000867947
0.0146967
0.00617689
0.0106939
0.00534279
0.000997293
0.00294141
0.000928393
0.00650592
0.0103416
0.00220574
0.00657535
7.78828e-06
0.00443395
0.0152203
0.00923694
0.00894499
0.00944956
0.00780836
0.00240084
0.0168103
0.0080708
0.0115476
0.00209875
0.0148812
0.0267442
0.00314492
0.0139155
0.00091687
0.00124685
0.0215291
0.0035279
0.0100588
-6.15226e-05
0.00996251
0.00918801
0.00866142
0.00355107
0.0400196
0.00119344
0.00787397
0.00947507
0.00065196
0.0100642
0.000647293
0.0155194
0.00349995
0.00216801
0.0127169
0.00595584
0.00433393
0.00247816
0.00454985
0.00232329
0.0111387
0.00789828
0.0103702
0.000665149
0.000592935
0.00065661
0.00109235
0.000622877
0.00804769
0.000592823
0.000634114
0.00315371
0.00314717
-0.0017889
0.0045194
0.0104765
0.0191235
0.0200824
0.00310563
0.0143375
0.00242677
0.00234274
0.0063039
0.00945203
0.0119219
0.000367759
0.010229
0.000398074
7.91021e-05
0.0203508
0.00370966
0.00440049
4.47254e-05
0.00382416
0.00309021
0.00271965
-0.000616913
-0.00115679
0.00762402
0.0136818
0.00240637
0.00285373
0.000192751
0.010725
0.0103163
8.1594e-05
0.0104611
0.00241742
0.0105765
0.00612002
0.0112098
0.00833244
0.00498804
0.009578
0.0248235
-0.00179646
0.0172107
0.00936719
0.0321148
0.0294357
0.0115088
-0.00163506
0.011347
0.00280553
0.00189909
0.00982942
0.00112157
0.000214744
0.00887071
0.000941329
0.0201086
-0.00132231
-0.00166287
0.0121147
0.0129409
-0.0015743
0.000922675
0.00529199
0.00838627
0.0017491
0.00109852
0.0104881
0.00846214
0.00816104
0.00891951
0.00940267
0.00282878
0.0022466
0.0107533
0.0200781
0.00270112
0.00747046
-0.00184274
0.012503
0.0122888
-0.000263216
-0.000400077
0.00714209
0.0287542
0.00117833
-0.000179076
0.0024643
0.00775957
0.0129005
0.00347371
0.0149413
0.00247019
0.0116338
0.00763198
0.00205788
0.00846534
0.00844627
0.00126002
0.00324072
0.00244585
0.00738853
0.00314128
0.00231772
0.0138366
0.00709484
0.00387519
0.00867452
0.0111256
0.00747394
0.00470179
0.000961169
-1.77266e-05
0.00707584
0.0070262
0.000486812
0.00799342
-0.000680472
-5.37015e-06
0.00815337
0.0336129
0.00782321
0.012731
-0.000814631
-0.000987115
0.0100374
0.0044306
0.00822641
-0.00122374
0.00788021
-0.00108499
0.00801791
0.0112319
-0.0017455
0.00549084
0.0111934
-0.00042199
0.0080524
0.00277563
0.00466637
-0.00112441
0.000670005
0.00967701
-0.000160134
0.00485628
0.000171445
0.0011876
0.010004
0.00517854
0.000362561
0.00223015
0.00603434
0.0014292
0.00881646
0.00315388
0.0157939
0.00885437
-0.000889543
1.95457
0.0199731
0.0183292
0.128027
-0.00199012
0.000791123
0.00231394
0.000851116
0.0014633
-0.00199744
0.00156179
-0.00145814
-0.00214132
-0.0016965
0.0179531
0.00364989
0.00496737
0.00103276
0.0178816
0.0019853
0.00481244
0.00113461
0.010121
0.00401961
0.018353
0.00926645
0.00974425
-8.17446e-05
-0.000916601
0.00220975
0.000485817
0.00342235
0.00945331
0.00713392
0.0022971
0.00881859
0.0100041
-0.00164964
-0.00197936
-0.00125847
0.00111056
0.0018552
0.00907107
0.00780224
0.00284611
0.00950088
-0.000196122
0.0138986
0.00992154
0.00300168
0.00953157
-0.000381318
0.0111504
-0.000269403
0.00223134
0.00682007
-0.000320872
0.00121656
0.00669447
0.00810515
0.00472518
0.0175631
0.00920363
0.00958401
0.0193977
0.00964576
0.0149569
0.00292911
0.00872352
0.00858257
0.00554474
0.00153024
0.00155365
-0.00184329
0.0191992
0.000323328
0.00221713
0.0149229
0.00121788
0.0123014
0.00919052
0.000850962
3.50463e-05
0.000700762
0.001187
0.0122757
0.00264655
0.000239832
0.0022082
0.00186308
0.000993507
0.000663152
0.00079212
0.00127959
0.00319079
0.000629433
0.000517797
0.000341759
0.000369873
0.00098873
0.000453636
-0.000249464
0.00280161
-7.85474e-05
0.00275741
0.00113486
0.000262009
0.000517756
0.0210158
0.0213609
0.00133478
0.00737626
-0.000333136
0.0016037
0.0119007
0.00258547
-0.000353824
0.0085893
0.00903482
0.00850258
0.0086229
-0.000396037
0.00156704
-2.96395e-05
0.000414624
0.0019455
0.0109501
0.00448391
-4.12246e-05
0.00324592
0.0135615
0.00284982
0.00798517
0.00848106
0.00136025
0.008829
0.00314137
0.00880484
0.0087179
0.00986684
0.00235364
-0.000253122
0.00575963
0.000192104
0.00696673
-0.00206021
0.00296979
0.0087765
0.00929917
-0.00121384
0.00854948
0.0126854
0.00938549
0.000697609
0.00409973
0.00355885
0.00444868
0.000536058
0.00686466
0.00916175
0.00167169
0.00181149
0.00344965
0.0035661
0.000890639
0.00875442
0.000383673
0.00203384
0.00319282
0.00204653
0.0137021
0.00134999
0.00779678
0.00859357
0.00341768
0.0082876
0.00181421
0.000681675
0.0038059
0.00188789
-0.00175576
0.000184944
0.000566017
0.00206444
0.000515374
0.00194944
-2.24583e-05
0.00200343
0.00136295
0.010018
0.00324703
0.00086008
0.00846528
0.00137361
0.0186291
0.00155214
0.00265119
-0.00108551
0.00150235
0.000838093
0.000794307
0.00181037
0.00922382
0.00136554
0.00336832
0.00797362
0.00371703
0.0103468
0.00559983
0.00340307
0.0126746
0.00325966
0.00715216
0.00888075
0.000231817
0.000772589
0.00313865
0.00175023
-0.00138621
0.00309081
0.00286162
0.000813113
0.013485
0.00246975
-0.00132839
0.000804388
0.00419678
0.0096166
0.00257982
0.00496463
0.00712949
0.00855914
0.0022349
-0.00124207
0.00717618
0.00740068
0.00141528
0.00336051
0.0021939
0.00441101
0.00281406
0.000359735
8.79612e-05
0.0141344
0.0128688
0.00224687
0.0030236
0.00509654
0.00645422
0.00421101
0.00379531
0.000906541
0.00294252
0.00164388
-0.000727159
-0.00214328
0.00177934
0.00283147
0.0086867
0.00296486
0.00911792
0.00238694
0.0041003
0.00130804
0.00919743
0.00260911
0.00328804
0.00131643
0.0114269
0.00522547
0.00316625
0.00331691
0.00241116
0.00292485
0.0124691
0.011751
0.00828166
0.000420041
0.00617265
0.00432187
0.00310551
0.00369783
0.00140904
0.00475601
0.00121012
0.00135447
0.000433746
0.00489542
0.00771324
0.00301086
0.00124872
0.0173081
0.0135598
0.00238216
0.00143461
0.000911051
0.0128873
0.0126803
0.00332701
0.00837304
0.00291251
0.00296826
0.00284009
0.00243189
0.0168084
0.00361008
0.00384586
0.000956775
0.00495441
0.0195659
0.00707845
0.00417847
0.00602254
0.00691428
0.00282175
0.00333181
0.013635
0.00723319
0.0144124
0.00390889
-4.87686e-05
0.00118527
0.00247587
0.00256814
0.00159212
0.00382666
-0.000276732
0.00334151
0.00284421
-0.000640508
0.0142865
0.00945902
0.0108175
0.00168728
0.00039869
0.010815
0.0165761
-0.00112281
0.0101404
0.00756305
0.00997841
0.00996563
0.00406214
-0.00191857
-0.000105699
0.00186217
0.00160741
0.00748592
0.000522074
0.00968307
0.000125926
-0.00073702
0.0106728
0.000751075
0.0138977
0.0215944
-0.000457884
0.00631976
0.00169922
-0.00197007
0.000479248
-0.00136421
-0.00200636
0.00200488
0.00138168
0.00128561
0.000695408
0.00315224
0.00625622
-0.00127361
-0.00127259
-8.34679e-05
0.0036539
-0.00062695
0.00794852
0.00114159
0.00236411
-0.000419196
0.00211107
0.0011762
-0.00202736
0.000696808
0.00797764
0.00307194
-0.00113674
0.00142923
0.00161619
0.000899402
0.00235474
-0.000791534
0.00751023
0.00126218
-0.0016607
-0.001372
0.00973151
0.00139765
0.00162587
0.0110318
-0.00152108
0.00936379
-0.0018498
-0.00180168
-0.00173095
0.00998296
0.000110031
0.00989153
0.0188978
0.0380783
-0.00121816
-0.000623747
-0.00144365
-0.00169728
-0.000356351
0.035124
0.00909982
0.00091469
0.00312165
0.0125351
0.00110301
0.0125738
0.0126558
-0.000350735
0.0153492
0.00091312
0.00110108
-0.000467605
0.0156263
0.00133991
-0.00202571
0.0129671
0.00467014
0.00234264
0.0270866
0.00103256
0.00301719
0.0023146
0.00147243
0.00658329
-0.000594915
0.00701774
0.00388397
0.000916428
0.00199724
0.00267217
0.00316286
0.00202649
0.00293854
0.00269621
0.00476401
0.00673095
0.00148836
0.00150372
0.00202119
0.000510899
0.0129084
0.00830336
-0.00119955
0.00470946
-0.00148465
0.00667396
0.000717494
0.00641897
0.00823432
0.00850671
0.00682535
0.0246061
0.0033906
0.0217047
-7.91906e-05
0.0216461
0.00649931
-0.000384092
0.00113367
-0.00114311
0.000192982
0.00502449
0.00676232
0.00683356
0.00106549
0.00103456
0.00180006
0.00788294
0.00112782
-0.000170274
-0.00147868
0.000666512
-0.000430648
0.00955781
0.00449001
-0.00175523
0.0166846
-0.000524018
0.0177008
9.45872e-07
-0.00181559
-0.00165466
0.00310025
-0.00164255
0.00113596
-3.36532e-05
0.000839858
0.00303454
0.0188943
0.000620844
0.00613499
0.00435749
0.00633586
-0.000757753
0.00196204
0.00636328
0.018752
0.00662213
-0.0019458
-0.00162853
0.0186325
0.00488442
0.00109861
0.00113018
0.00103695
0.0154398
0.00784738
-0.00030513
-0.0017289
0.000176379
0.000386416
0.00133488
0.000856623
0.0149485
-0.00119326
0.00157853
-0.000771859
0.00103737
0.00112759
-2.77287e-05
0.00340964
0.0076867
0.0164667
-0.00124402
0.0156192
0.0151877
-0.000270724
-0.00106959
0.00493552
0.00125644
0.00754712
-0.00102559
0.00164373
0.00305858
0.0021191
0.00294006
0.00312403
0.000350752
0.00274454
0.00134885
0.00313167
0.00328116
0.00318379
0.00306289
0.00346291
0.00743797
0.0031021
-0.00069223
0.0021313
0.00744281
0.00340404
0.00316424
0.00722953
-0.000159319
0.00328076
0.00819723
0.00263309
0.0075901
-0.00139779
0.00150293
0.00405104
-9.80191e-05
0.000604578
0.00851803
0.0077602
0.00147274
0.00065834
0.00247777
0.000517269
0.00119695
0.00195015
-0.0014603
-0.00161924
-0.0014698
0.0140883
-0.000866869
0.00877272
0.00370316
-0.000451019
-0.00141642
0.0143363
0.00468393
-0.00161819
0.0039636
0.0113869
0.0106213
0.00244667
-0.00128613
-0.00128018
0.0146145
0.0125877
0.00651805
0.00144991
0.00140511
0.0049829
0.00387133
0.00289566
0.00298577
-0.00123266
0.00312206
0.00938965
0.00328991
0.0133439
0.00431939
0.0050913
0.00144597
0.00306434
0.00298749
0.00242389
0.00397515
0.00715562
0.000360384
-1.87673e-05
0.0121712
0.00665802
0.00150902
0.000324423
0.00349274
0.00125196
0.00633628
0.00518355
0.00304274
0.00167271
0.0029274
0.00335178
0.00285892
0.00341681
0.00300048
0.0010335
0.000935216
-0.000562324
0.00235774
0.0116214
0.0116537
0.00365717
0.0109855
0.00320958
0.00206352
0.000887342
0.0106805
0.00804532
0.000954066
0.0060328
0.00472448
0.00158627
-0.00185602
0.0015135
-0.000715824
0.00255797
-0.000244449
0.00363588
0.00261057
0.0126675
0.00803134
0.00596069
0.00508174
0.00258333
0.00155836
0.00275226
1.54729e-05
0.0120158
0.0026358
0.00904476
1.22889e-05
0.0126429
0.0126673
0.0109679
4.85275e-05
0.0173475
0.0106775
3.19027e-05
0.00231416
0.00226231
6.53167e-05
0.00488602
3.14738e-05
0.010167
0.00155364
0.0109802
-3.52165e-06
0.00151609
0.00158692
0.0105003
0.00280723
0.000557078
0.000170216
0.00180673
0.00280964
0.0151926
0.00626436
0.00191689
0.0103113
0.0103794
0.0105236
0.0120167
0.0136615
0.00719345
0.00726691
0.000617946
0.00500486
0.00100245
0.00744561
0.0062838
0.00279894
0.00241351
0.000614594
0.00286999
0.00931087
0.00198933
0.00285495
0.000587172
0.0121322
0.00290169
0.00337936
0.000986144
0.000909669
0.000366133
0.000943618
0.00261631
0.000202983
0.00140421
0.0121483
0.00669491
0.0119231
0.00506824
0.000404124
0.00801513
0.0013499
-3.40937e-06
0.00094909
0.00861463
0.00112794
6.28537e-05
0.00701823
0.0112038
0.00594236
0.00827237
0.0101109
0.0128568
0.012786
0.000179367
0.00252638
0.0103575
0.00774714
0.0112786
0.0112943
0.00226598
0.00979705
0.001487
0.0139729
0.00996437
0.00775859
0.0184892
0.000178038
0.0138735
0.0033356
0.0117357
0.0124525
0.0132976
0.014331
0.00229592
0.0139392
0.0143724
0.0140079
0.0106288
0.008599
0.0200307
0.00405984
0.00831337
0.00782533
0.00257715
-0.000564091
0.000743749
0.00913972
0.0110557
-0.00158728
0.000586758
0.00953422
0.0112394
0.00681223
0.00786793
0.00996712
0.015066
0.010655
0.00954762
0.00892895
0.00501873
0.00919395
0.0112593
0.00487346
0.00930872
0.0106439
0.00687674
0.0114482
0.00584255
0.00431355
9.63819e-05
0.00941444
0.00566458
0.00067415
-0.000998076
0.0110265
0.0101045
0.00938661
0.0116338
0.00277007
0.00307025
0.0098693
0.0233597
0.00985727
-0.00096846
0.00890589
0.0231817
0.0241117
-0.000931472
0.00331571
0.00745514
-0.00107047
0.00404564
0.00973707
0.00351295
0.0116828
9.62045e-05
0.00299252
0.00248017
0.00305944
0.0151053
0.000436833
-0.00113981
0.0150457
0.01514
-0.0011482
0.00312443
-0.00100528
0.0149699
0.00885155
0.0138058
0.00224544
-0.00121903
0.0146911
-0.00115227
0.012115
0.0122365
-0.00128622
0.00871144
0.0121695
0.00263112
-0.00114476
0.0125981
0.00818153
-0.0013765
0.0126388
0.00771446
-0.00109408
0.00112933
0.00926391
-0.000164823
0.0011589
0.00418284
0.00114035
0.00221294
0.0258337
0.0091443
0.00405558
0.00230516
0.00402425
0.00232351
0.01152
-0.000316911
-0.000586597
0.00246148
2.00316e-05
0.00250755
0.00309108
0.0076567
0.00586814
0.000259897
0.00197354
0.000788537
-0.00122139
0.00324061
0.00241167
0.000922203
0.00862541
0.00331017
0.00114732
0.0241897
0.00213015
0.00786961
0.00349604
0.0102977
0.0021081
0.0327374
0.0328551
0.00900039
0.0327345
0.00434869
0.00550207
0.00534007
0.000456901
0.0034473
0.0121271
0.00863266
0.00531809
0.0120644
0.0102072
0.00231159
0.00514961
0.0115828
0.00472197
0.0125942
0.00412623
8.43216e-05
0.0051506
0.00322781
0.00221686
0.00192069
0.000624216
0.0054058
0.00453957
0.00475129
0.00328708
0.00625916
0.00131971
0.00769477
0.00188083
0.0020785
0.00282599
0.00624414
0.00824043
0.00269093
0.00246983
0.0125444
0.00322916
0.00300579
0.00906959
0.00330641
0.00601507
0.000166909
0.00382966
0.00111222
-0.00016948
0.00257624
-0.001034
0.00458937
0.00025498
-0.000136917
0.00973684
0.00283937
0.0023776
0.00225439
-0.00139994
0.0103203
0.00889669
8.5772e-06
0.00798105
0.00262755
0.00720835
0.000153077
4.85101e-05
0.00406023
0.0183972
0.00328594
0.00117814
0.00283275
0.00186404
0.00439713
0.0131452
0.00848513
0.0114008
0.0101736
0.000669615
0.0107889
0.0187393
-0.000145145
0.0126129
0.0196389
0.0104505
0.00221471
0.0141965
0.0110175
0.0120344
0.00402187
0.00395995
0.00293796
0.00107797
0.0191964
0.0120725
0.0105525
0.00843026
0.0135646
0.0120422
0.0114694
0.0191433
0.00786364
0.00755343
0.00194266
0.019568
0.0039261
0.00322109
-0.00130366
0.000605586
0.00119481
0.000854161
0.000705184
0.0127529
0.0020235
0.0146684
0.0112795
0.000795857
0.0118775
0.0137267
0.0113327
0.000808299
0.0130103
0.0128788
0.00912232
0.00479848
0.00363928
0.000891084
0.00539467
0.000888282
0.00427561
0.00430415
0.00876667
0.00847488
-0.00108378
0.0104655
-0.000587607
0.00810487
0.00127217
-0.000193816
0.00853956
0.00783178
-0.00101296
-0.00153384
-0.00213519
0.00340429
0.008583
7.37813e-05
-0.000356823
0.00206728
0.00856483
0.00240114
0.00642539
0.000994561
0.00878691
0.00129704
-0.000576501
0.00428887
-0.00201049
-0.000185898
0.000584964
-0.000412502
-0.000566512
0.00877521
-0.00128157
0.0100853
0.0105247
0.00988862
0.0100895
0.00988522
0.00467151
-0.000661922
-0.000821074
-0.000467965
0.0017071
0.00142241
0.00121309
0.00130474
0.00395413
0.000703884
0.00113521
0.00297149
0.000107636
0.00447937
0.00151244
0.00253092
0.00200973
0.000487231
0.00400389
0.00130799
0.00271247
0.00265097
0.00234212
0.0127363
0.00269592
0.00208729
0.0054866
0.00180488
0.00944276
0.000143916
0.00278284
0.00165904
0.00263505
0.0030279
-0.000870289
0.00109627
0.00185743
0.0105487
-0.000735307
0.000674456
0.00190069
0.00151741
-5.3476e-05
0.00285268
0.00195344
0.00552941
0.00428064
0.0079646
0.0131671
-0.000816443
0.0103261
0.00893563
0.00170375
0.00981247
0.00459379
0.00902802
-0.000416064
0.00822334
0.00980021
0.00193136
-0.000886364
0.00169495
-0.000279348
0.000279245
-0.00149911
0.00181231
0.0016698
0.00164097
0.00909989
-0.00111964
0.000405324
-0.00106011
0.0110171
0.0111074
0.00527652
-0.00158418
0.00536076
0.00670783
0.00296598
-0.00138918
0.00168297
-0.00071382
-0.00113914
-0.00106377
0.00525722
0.00164482
0.00303436
0.00306136
0.00392394
0.00304527
0.00232487
-0.000501257
-7.23277e-06
0.00151181
-0.00203592
0.0085291
-0.00196613
0.00951127
0.0100249
0.0100932
0.00255423
-0.00109213
0.00235957
0.00124195
0.0022672
0.00730424
0.0039941
0.00396251
0.00409593
0.00577246
0.002024
0.00583299
0.00230572
0.00444077
0.000901815
0.00377761
0.00231297
0.0112483
0.0118465
-0.000591898
0.0126341
0.000831387
0.00216272
0.000328184
0.00738123
0.0127638
0.000856208
-0.00182487
0.0100734
0.000797446
0.00952106
0.00273125
-0.000840521
0.010907
0.0112487
0.00698582
0.00229924
0.00399778
0.0145922
0.000918006
0.0122828
0.00243572
0.0103883
-0.000352287
0.00396422
0.000855025
0.00018713
0.00174168
0.0160621
-0.00178734
0.00556659
0.0172344
0.00719949
0.017676
0.0115149
-0.000610229
0.00533803
0.00169802
0.00261624
0.00264494
0.0163872
0.00275122
0.00165956
0.00966225
0.00172958
0.0127066