/*--------------------------------*- C++ -*----------------------------------*\
| =========                 |                                                 |
| \\      /  F ield         | OpenFOAM: The Open Source CFD Toolbox           |
|  \\    /   O peration     | Version:  v2012                                 |
|   \\  /    A nd           | Website:  www.openfoam.com                      |
|    \\/     M anipulation  |                                                 |
\*---------------------------------------------------------------------------*/
FoamFile
{
    version     2.0;
    format      ascii;
    class       surfaceScalarField;
    location    "0.5";
    object      phi;
}
// * * * * * * * * * * * * * * * * * * * * * * * * * * * * * * * * * * * * * //

dimensions      [1 0 -1 0 0 0 0];
oriented        oriented;


internalField   nonuniform List<scalar> 
210647
(
-6.53544e-06
5.43532e-06
5.84486e-06
-4.74526e-06
1.58234e-06
-7.76355e-07
3.2351e-06
-4.04113e-06
-1.20074e-05
1.58128e-05
1.41128e-06
-5.21706e-06
-4.18449e-05
2.18372e-05
2.30799e-05
-3.07267e-06
-4.14487e-06
1.50237e-05
-3.73853e-06
-7.14093e-06
2.18304e-08
7.38542e-08
6.07354e-09
-1.01759e-07
-4.543e-06
3.21299e-07
2.07387e-06
2.14773e-06
1.61992e-08
-9.85155e-07
9.68703e-07
1.54038e-05
-2.81032e-05
7.06093e-05
-5.79102e-05
6.83693e-07
-5.53403e-06
3.6593e-06
1.19056e-06
-3.43792e-06
-4.70774e-06
-2.67589e-06
1.08208e-05
-2.24515e-06
-1.01979e-05
3.3692e-06
9.073e-06
-9.56468e-06
1.43713e-05
-1.31218e-05
8.31487e-06
1.24266e-06
-1.94035e-06
1.54332e-06
-8.46037e-07
1.06594e-06
-9.78747e-08
9.62139e-07
-1.93068e-06
1.12606e-05
-1.29267e-05
1.37606e-06
2.90013e-07
4.514e-06
-5.03156e-06
-7.18485e-07
1.23572e-06
-9.43699e-07
9.39356e-07
-1.4771e-06
1.48097e-06
3.87441e-05
6.21991e-06
-2.14129e-05
-2.35514e-05
-1.69599e-06
-2.10492e-06
-6.16275e-07
4.41716e-06
3.81819e-08
3.3848e-06
-3.4232e-06
3.35194e-05
4.49567e-05
-6.1198e-05
-1.72781e-05
-1.27782e-06
1.5285e-07
1.78704e-06
-6.62065e-07
9.30987e-07
-1.29024e-06
-2.42715e-07
6.01266e-07
-1.25532e-05
2.42348e-05
-1.21319e-05
4.50087e-07
1.91291e-07
-9.13898e-07
1.12287e-06
-4.0024e-07
0.00013521
0.00019996
-9.57632e-05
-0.000239407
4.67819e-06
5.24092e-07
-7.3146e-07
-4.47087e-06
-4.48577e-06
2.12952e-06
-8.89713e-07
3.24582e-06
2.16341e-06
3.65906e-07
-2.76311e-06
2.33505e-07
-0.000260055
0.000288325
-0.000262973
0.000234702
3.25452e-06
-1.56112e-06
-2.04879e-06
3.54729e-07
-5.81365e-05
0.000193346
8.82965e-07
9.37872e-06
-9.49159e-06
-7.70835e-07
-4.6606e-05
-1.66633e-05
8.56351e-05
-2.23656e-05
-9.32327e-07
1.03194e-06
8.14878e-06
-8.24891e-06
0.000180975
-5.63731e-05
3.3917e-05
-0.00015852
6.36973e-06
2.61445e-06
-8.98477e-06
-1.7486e-06
8.6144e-07
4.45478e-07
4.41635e-07
2.13176e-07
-1.4927e-06
-1.51311e-06
2.79257e-06
1.64013e-06
3.97966e-06
-4.89657e-06
-7.23345e-07
1.693e-05
-2.2682e-05
1.83965e-05
-1.26456e-05
1.68365e-06
-7.47386e-07
-9.36752e-07
7.48104e-06
-4.81379e-05
4.06567e-05
-1.16772e-05
7.18931e-06
4.74599e-06
-2.58179e-07
-9.45853e-08
1.67706e-08
-6.62577e-07
7.40363e-07
0.000122838
7.20133e-07
-3.32287e-06
2.60269e-06
2.54663e-06
-2.49748e-06
-1.5231e-06
1.47389e-06
-2.57937e-06
1.64247e-07
-5.41157e-06
7.82644e-06
-6.35905e-06
0.000125651
-0.000109528
-9.76437e-06
7.63028e-06
-8.01081e-06
-3.46787e-07
7.27168e-07
-1.48758e-06
-1.41024e-06
-9.31143e-07
3.8289e-06
-6.58968e-05
7.50912e-05
6.41175e-05
-7.33126e-05
-1.26228e-06
-9.32599e-07
-1.22899e-06
3.42322e-06
-9.18404e-07
-2.91324e-06
1.60685e-06
2.22396e-06
3.59007e-05
0.00010951
-4.40303e-05
-0.000101381
-2.8455e-06
5.01363e-06
-8.62363e-06
6.45541e-06
1.14085e-05
-1.08408e-05
-1.41817e-05
1.36137e-05
1.18083e-05
-1.09173e-05
-4.87516e-06
3.98371e-06
4.28835e-06
-1.223e-05
-1.78734e-07
8.12005e-06
5.3867e-06
4.61575e-06
-2.65907e-05
1.65879e-05
3.47917e-07
4.51756e-06
-7.52191e-06
2.65591e-06
-8.17585e-07
-9.8708e-08
-2.76772e-07
1.193e-06
4.46193e-07
3.17247e-05
-8.09996e-06
-2.40715e-05
-2.48767e-06
3.27541e-06
4.32428e-07
-1.2202e-06
-1.60076e-05
3.09784e-06
1.29097e-05
-2.42764e-05
8.0872e-06
8.31711e-06
7.87175e-06
-4.06634e-06
3.1197e-06
4.76749e-06
-3.82177e-06
1.32488e-05
-6.81014e-06
-8.20326e-06
1.76431e-06
-8.48615e-08
-6.36946e-07
-7.81527e-07
1.50272e-06
-1.22337e-05
6.17744e-06
1.71443e-05
-1.10883e-05
9.50882e-06
4.77582e-06
-3.72521e-06
-1.05597e-05
3.94348e-06
-5.42289e-06
-1.07545e-05
-1.07053e-06
3.07083e-06
1.49464e-06
-3.49495e-06
0.000251695
9.40292e-05
3.34365e-05
-0.000379162
-8.2849e-07
1.08621e-08
1.03975e-05
-9.7487e-06
1.87133e-06
-2.52081e-06
1.98939e-05
-0.000162277
9.40157e-05
4.83666e-05
1.04554e-06
-2.79128e-05
-7.36367e-07
2.76035e-05
-5.54013e-06
5.65752e-08
8.11503e-06
-2.63184e-06
-2.42435e-06
2.7095e-06
-1.4407e-06
1.15509e-06
1.1504e-05
4.87133e-06
-2.4214e-05
7.83851e-06
-2.63454e-06
8.83255e-06
-6.19846e-06
1.51319e-06
-4.82852e-07
9.50807e-07
-1.98189e-06
4.47058e-07
-1.39526e-06
1.4349e-06
-4.87167e-07
1.26332e-05
1.15874e-05
-2.12638e-05
-2.95774e-06
-6.91742e-07
6.45909e-06
5.90807e-07
-6.35862e-06
-1.06566e-06
1.45193e-07
7.30861e-06
-6.38848e-06
1.74321e-05
1.65023e-05
-1.45569e-05
-1.93777e-05
-1.56772e-05
3.11258e-06
1.33983e-05
-8.34023e-07
0.000138959
0.000144638
-9.23912e-05
-0.000191207
3.19978e-06
-2.82796e-07
-1.85945e-05
-3.35923e-06
5.1148e-06
-1.75572e-06
1.83004e-05
-1.4656e-05
-9.34522e-06
5.70031e-06
2.96349e-06
5.69419e-07
-4.95501e-06
1.42152e-06
9.17483e-05
-3.93812e-05
8.65916e-05
4.59131e-06
-2.83832e-06
-3.52307e-06
1.76988e-06
-0.000138559
0.000145115
-0.000147983
0.000141427
-8.05821e-05
5.0662e-06
-1.24334e-05
8.79487e-05
7.69267e-06
-1.43609e-05
-6.20058e-06
1.28682e-05
1.52213e-05
-4.79058e-05
4.37514e-05
-1.10675e-05
-1.44677e-06
3.44387e-06
-1.78377e-06
-2.14103e-07
-8.11684e-07
-4.91909e-06
1.49589e-06
4.2341e-06
6.61808e-06
-3.31106e-06
-1.87673e-06
-1.43074e-06
2.14996e-05
2.27991e-06
4.11619e-06
5.19707e-07
-6.91679e-06
-7.16269e-06
-0.000125529
6.03168e-05
7.23767e-05
5.00258e-05
1.19463e-05
-9.98168e-06
-5.19905e-05
-9.65845e-07
-5.55507e-07
-1.63686e-06
3.15812e-06
6.30447e-06
-4.72075e-06
4.98406e-06
-6.56763e-06
6.92023e-06
1.76915e-05
2.65693e-06
-3.94268e-06
1.28568e-06
-6.42219e-06
6.83529e-06
9.07202e-07
-1.32063e-06
-1.9698e-05
5.37702e-06
1.77299e-05
-3.40975e-06
-3.95052e-07
3.40252e-06
2.67473e-07
-3.27499e-06
8.02585e-06
-4.31662e-06
1.9508e-06
-5.66032e-06
-3.6822e-06
-8.53059e-06
4.29327e-06
7.91913e-06
-2.40851e-05
1.00859e-05
7.8196e-06
6.17889e-06
0.000131448
3.47453e-05
-2.15562e-05
2.27497e-06
-8.74144e-07
2.38889e-07
-1.64023e-06
9.75639e-06
-4.89724e-05
3.6832e-05
2.38374e-06
3.54433e-06
-2.42264e-06
-2.7555e-06
1.6338e-06
-8.18836e-06
-2.5597e-07
8.83259e-07
7.56076e-06
2.88476e-06
-7.21219e-06
4.32708e-06
-4.48514e-06
5.18797e-06
1.23904e-05
-1.30935e-05
3.39989e-06
2.46064e-06
-3.95039e-06
-1.91022e-06
-2.81037e-06
4.6141e-06
5.81749e-07
-2.38598e-06
-4.02114e-05
8.00351e-06
4.19642e-05
-6.52204e-05
-4.77088e-05
6.75471e-05
4.5382e-05
2.37144e-06
1.80683e-07
2.90849e-06
-5.46107e-06
-8.01075e-06
-6.4012e-06
-5.08085e-05
-2.9102e-05
6.26526e-06
-6.0521e-06
2.88879e-05
-4.67014e-06
-2.30641e-07
2.54141e-06
2.3594e-06
3.30735e-06
-1.67782e-06
-1.46609e-05
1.30307e-05
-4.08216e-06
1.47509e-05
5.43937e-06
-1.61086e-05
7.5176e-06
-4.00797e-05
-7.6498e-06
1.02133e-05
-3.6153e-06
-9.47122e-06
2.8725e-06
-5.01816e-06
-9.43285e-07
4.90447e-06
1.05638e-06
1.35925e-06
2.98107e-07
-2.5879e-06
9.30039e-07
8.71855e-06
9.34246e-06
-4.07786e-06
-1.39836e-05
3.35975e-05
0.00022015
-7.07568e-06
-0.000246673
6.23805e-06
-6.66046e-06
-9.76234e-06
1.01847e-05
7.30466e-05
-2.99332e-05
-2.77089e-05
-1.54046e-05
1.32749e-05
1.20624e-05
1.08293e-05
5.06346e-06
-6.71749e-06
-9.17555e-06
6.79677e-06
5.63103e-08
-1.68282e-06
-5.17059e-06
-1.34869e-06
7.00426e-09
1.34163e-06
6.36613e-06
-5.83651e-06
-3.56263e-06
3.63454e-06
1.24772e-06
-1.31969e-06
-5.06058e-06
-7.84472e-07
2.28236e-06
4.40664e-07
3.99671e-07
-7.69082e-07
-7.12685e-08
-3.88712e-07
-3.36811e-07
1.07234e-08
7.14771e-07
3.72933e-06
4.70486e-07
1.7973e-06
-5.99719e-06
4.82951e-06
-2.47565e-05
-2.4186e-06
2.2345e-05
-4.85272e-06
3.20746e-06
-8.08521e-07
2.4538e-06
-5.2352e-06
4.70138e-06
-7.29025e-06
7.82305e-06
8.34424e-05
-0.000145112
-1.78925e-05
7.95618e-05
-0.000196784
-0.000242981
0.000300007
0.000139757
1.53742e-06
-9.66447e-06
-3.69542e-07
8.49647e-06
4.95729e-06
-6.28865e-06
-3.37532e-06
1.77647e-05
-0.000377157
0.000419554
-0.000135964
-0.000719583
0.000435994
-9.48633e-08
2.98322e-06
-2.20187e-06
-6.86944e-07
-2.90633e-06
1.90761e-06
-2.20577e-06
3.20397e-06
2.68938e-06
6.31604e-06
-2.5853e-06
-6.4202e-06
-2.46097e-06
3.34724e-06
7.66785e-07
-1.65332e-06
6.21152e-07
-7.00756e-07
7.95533e-08
-2.07365e-07
9.2571e-06
-1.87976e-06
1.45786e-05
-2.19569e-05
-1.22652e-05
-7.859e-06
-1.02252e-05
3.0349e-05
1.40481e-06
9.72135e-09
-3.0062e-06
1.5909e-06
-1.10135e-06
5.32142e-06
5.73868e-06
-9.95894e-06
7.51154e-06
1.15609e-05
-9.95118e-06
-9.12181e-06
-3.79529e-07
1.53623e-06
2.79032e-06
-3.9471e-06
3.02554e-06
1.30324e-07
-1.97519e-06
-1.18065e-06
-2.21067e-06
6.37645e-06
-1.09024e-05
6.73656e-06
-7.72393e-07
-8.05966e-08
1.52179e-07
-2.105e-05
7.60933e-06
9.70274e-07
1.24696e-05
2.44138e-06
-2.16242e-05
-1.62753e-08
1.91989e-05
9.1757e-07
-3.03578e-07
4.11733e-06
-4.7316e-06
4.41621e-06
-9.59382e-06
-1.53149e-05
2.04924e-05
0.000125727
-5.84614e-05
-1.84177e-05
-4.88473e-05
1.67015e-06
-1.24319e-06
1.4068e-06
-1.83383e-06
3.73607e-06
-4.63053e-06
1.51405e-06
-6.20403e-07
-9.23419e-07
4.91839e-06
-4.57253e-06
5.76772e-07
-8.75948e-06
-4.27832e-05
8.94969e-05
-3.79547e-05
-6.43265e-07
-2.45223e-06
1.69432e-06
1.40057e-06
2.25291e-06
2.2367e-06
-1.05304e-06
-3.43718e-06
1.19467e-06
-9.36102e-08
5.68991e-07
5.50937e-06
-1.29703e-05
8.4277e-06
-9.67446e-07
4.99744e-05
7.97725e-05
-0.000157769
2.80224e-05
-6.85845e-06
1.33158e-06
7.30236e-06
-1.77595e-06
-4.20731e-06
7.91773e-06
-4.3546e-06
6.44212e-07
-2.10742e-05
-1.52422e-05
1.95221e-05
1.67935e-05
-1.84044e-06
-1.11972e-05
1.30161e-05
2.08222e-08
5.93781e-07
4.44611e-06
1.16188e-05
-8.92253e-07
-1.52641e-06
-9.20078e-06
-1.30202e-05
-4.94464e-06
1.43207e-06
1.65318e-05
1.22651e-06
-1.49053e-06
-9.79276e-07
-1.04684e-06
-2.59062e-06
4.19201e-06
-5.5499e-07
-7.58624e-06
-2.36243e-06
9.01716e-07
9.04694e-06
3.33123e-08
-2.69901e-06
2.6655e-06
-2.1942e-05
-5.66076e-05
-6.92763e-06
2.68808e-06
1.97796e-06
1.85888e-06
-6.52499e-06
9.19519e-08
2.076e-06
-2.168e-06
2.66975e-05
-3.51141e-05
1.4648e-05
-6.2321e-06
8.89239e-07
1.29133e-06
-4.74942e-06
2.56884e-06
-1.71204e-05
-2.84857e-06
-3.98194e-08
2.00082e-05
-2.3047e-06
1.82958e-06
-4.15963e-07
8.91035e-07
5.84054e-06
-4.6964e-06
7.1609e-07
-1.86042e-06
-6.21473e-06
7.89913e-06
-1.68473e-06
-1.15226e-05
5.94345e-06
3.36842e-06
4.86926e-06
-1.20291e-05
3.66275e-06
3.49774e-06
-2.23458e-07
7.5561e-07
-5.32195e-07
-1.56289e-06
-3.67445e-06
1.66571e-07
5.07055e-06
-9.66091e-08
-8.31469e-07
-1.24089e-06
2.16859e-06
-2.69404e-05
3.80353e-05
2.21299e-05
-3.32255e-05
0.000130862
-4.11389e-05
-4.15142e-05
-4.82091e-05
-0.000105921
0.000131883
-0.000102459
7.64962e-05
-3.86168e-06
6.57093e-06
-4.00826e-06
1.299e-06
3.86945e-06
-4.6013e-07
7.41719e-07
-4.15107e-06
-1.73184e-05
9.34169e-06
1.55184e-06
6.42374e-06
4.22583e-06
2.1004e-06
-9.61964e-06
3.29354e-06
1.60934e-06
2.66264e-07
-2.23333e-07
-1.65229e-06
4.97504e-07
-3.90375e-07
1.03097e-07
-2.1027e-07
6.40403e-05
4.67024e-05
2.01196e-05
-5.2349e-06
-2.48823e-05
4.74357e-05
-1.73197e-05
1.15013e-05
-3.7878e-06
-5.12381e-06
-2.58983e-06
-1.06951e-06
3.46394e-07
4.81008e-07
2.42076e-07
4.70799e-07
1.45473e-06
-1.92553e-06
-7.30392e-07
1.15101e-06
-2.22143e-06
1.80029e-06
-2.74924e-07
-2.49437e-07
5.549e-07
-1.71874e-06
1.41337e-06
-2.49955e-07
-3.74868e-05
-8.20052e-06
4.59368e-05
5.95678e-05
-7.12022e-05
1.16337e-05
3.92566e-05
-8.33463e-05
-5.95141e-05
0.000103603
-1.33045e-05
2.37218e-05
-2.73906e-05
1.6973e-05
5.17162e-06
2.39531e-06
-4.42693e-06
-3.14016e-06
6.73769e-05
4.12816e-05
-0.000144046
3.53882e-05
5.12307e-05
-6.38606e-06
-4.48453e-05
-2.11231e-06
3.12611e-05
-1.34308e-06
-2.78069e-05
-1.60076e-07
1.95308e-07
-3.53129e-08
6.8146e-05
8.26734e-05
0.000135038
-2.95107e-06
-7.64377e-05
-5.56501e-05
1.84692e-06
9.3644e-07
1.36214e-05
-1.6405e-05
2.15224e-07
4.1975e-06
-8.3143e-06
3.90174e-06
-2.61195e-06
1.41401e-06
-1.89752e-06
3.09542e-06
0.000130262
-3.53468e-05
9.75774e-05
-0.000192492
4.60779e-05
-5.39382e-05
1.48733e-05
-7.01339e-06
-0.00146995
0.00110601
0.000684793
-1.31367e-05
-5.17834e-06
-2.68404e-05
4.51552e-05
-8.7195e-06
2.01451e-05
3.17177e-05
-4.31438e-05
-9.21375e-06
-5.98795e-06
-8.20652e-07
1.60215e-05
-7.3737e-06
2.52563e-05
-0.000132223
0.00011434
0.000103077
6.84669e-05
0.00010296
1.63543e-05
-0.000126688
1.07535e-05
5.78338e-07
-9.81662e-07
-1.03508e-05
-0.000207115
0.000180629
7.82711e-05
-5.17865e-05
1.35251e-08
5.4995e-08
-7.76109e-08
9.09546e-09
3.15357e-05
-7.83872e-06
-3.539e-05
1.16919e-05
1.281e-06
-2.35157e-06
9.64789e-06
7.54879e-06
-6.13566e-06
-1.10618e-05
7.32193e-06
4.0829e-06
9.65852e-07
-1.23709e-05
0.000124131
-3.85926e-05
-5.63852e-05
-2.91532e-05
2.1167e-06
-9.08738e-07
-1.30379e-06
9.57886e-08
3.65476e-05
-2.14937e-05
3.28024e-05
-4.78575e-05
2.11623e-06
-1.10091e-06
2.6114e-06
-3.62686e-06
8.09454e-09
-1.10479e-07
1.15904e-07
6.8997e-06
2.5677e-05
-2.60482e-05
-6.5291e-06
-4.73461e-07
-1.41231e-06
4.48562e-07
1.43709e-06
1.66279e-05
2.42268e-05
-1.87178e-05
-2.21374e-05
1.82524e-06
-1.9836e-06
-1.1938e-06
1.35206e-06
-1.86973e-06
-2.52342e-07
1.49255e-06
6.29452e-07
2.27353e-08
-3.57442e-08
1.86866e-06
-1.85569e-06
1.38938e-06
1.76096e-05
-2.35043e-06
-1.66491e-05
0.00010076
0.000141523
-0.00017439
-6.78944e-05
1.75479e-05
-8.1412e-06
1.61604e-06
-1.1022e-05
1.56561e-05
-1.42355e-06
-9.24384e-07
-1.3309e-05
-1.22023e-06
-3.71965e-06
3.31872e-06
1.62115e-06
-1.65124e-06
4.39023e-06
1.75477e-06
-4.49388e-06
1.9246e-08
4.48889e-08
3.51176e-08
-9.92829e-08
-1.56557e-09
1.72969e-07
-1.5217e-07
-6.26242e-07
4.78067e-07
-2.82155e-07
4.30275e-07
2.02174e-05
-4.0344e-05
-2.72549e-05
4.7381e-05
3.69997e-06
-1.01875e-05
-2.69774e-06
9.18475e-06
-7.98873e-06
1.5562e-05
3.34678e-06
-1.09203e-05
-2.21571e-06
2.22036e-06
-3.23315e-06
3.2284e-06
-6.1167e-06
-5.162e-06
1.32587e-05
-1.98084e-06
-5.20244e-09
7.20645e-07
-7.01574e-07
-1.38763e-08
-2.37575e-06
-4.80425e-07
2.38515e-06
4.70505e-07
3.32688e-05
-3.96698e-05
2.02584e-05
-1.38582e-05
3.13554e-06
2.5641e-06
-7.91544e-06
4.41282e-05
-1.51475e-05
3.52893e-05
-6.42713e-05
2.9928e-07
-7.42662e-07
2.17468e-06
-1.73132e-06
2.01788e-05
-3.46343e-05
1.15796e-05
2.87533e-06
0.000219123
-0.000210713
3.19813e-05
-4.03934e-05
8.24905e-06
-3.15096e-05
5.74648e-05
-3.42053e-05
6.42562e-06
-6.68893e-06
2.62942e-07
7.17147e-07
-9.42815e-09
4.44177e-08
-7.52201e-07
3.39367e-06
-2.56358e-06
2.12611e-06
-2.95623e-06
-2.80721e-06
-3.5015e-07
8.2233e-07
2.335e-06
8.6547e-06
-3.73309e-06
3.22351e-07
-5.24471e-06
3.93927e-07
3.23017e-07
-1.9482e-05
2.77247e-05
2.47143e-05
-3.29575e-05
-4.00328e-08
7.28713e-07
-6.82161e-07
-6.52047e-09
-8.12278e-09
4.55454e-07
-4.47345e-07
-1.25669e-06
-1.15131e-06
3.28876e-07
2.0791e-06
6.26215e-07
-2.05733e-07
-4.60516e-07
3.11976e-06
-3.18437e-06
-3.0109e-06
3.07551e-06
-1.56604e-06
4.60699e-06
1.24476e-06
-4.2861e-06
-2.01666e-05
-4.86755e-06
1.36839e-05
1.13499e-05
1.52111e-06
-2.89788e-07
-6.3792e-06
5.14736e-06
7.2505e-06
-4.70321e-06
-4.21709e-07
-2.12595e-06
-1.28708e-06
-2.67697e-07
1.66743e-06
-1.12716e-07
-2.71526e-06
-1.91021e-06
1.34448e-06
3.28095e-06
5.96912e-07
-5.86081e-07
5.3187e-06
7.98369e-06
-7.1391e-06
-6.16362e-06
2.45912e-06
3.72431e-08
-9.56369e-08
-2.40078e-06
-3.54194e-05
-3.1393e-05
4.95758e-05
1.72355e-05
3.56396e-08
3.94495e-06
-1.50394e-06
-2.4767e-06
6.73959e-07
-1.75779e-07
-1.0809e-07
1.82454e-07
1.68382e-06
-1.75819e-06
-1.47517e-06
1.34968e-07
1.23214e-06
-1.98533e-06
-5.40054e-07
5.93793e-06
-3.41286e-06
-3.41293e-06
2.08921e-06
-5.04593e-06
6.36957e-06
2.68067e-06
-2.64925e-06
-4.71917e-07
4.40426e-07
-2.59963e-06
8.2863e-07
4.76236e-06
-2.99141e-06
-2.46062e-05
3.45273e-05
-9.28473e-05
8.29256e-05
-5.81588e-06
2.4483e-05
-9.19108e-06
-9.47697e-06
5.15032e-06
-1.85118e-06
-2.7053e-06
-5.939e-07
3.4444e-06
-5.44048e-06
-1.20208e-06
3.19803e-06
-3.29529e-06
-8.33076e-06
2.16408e-06
9.4619e-06
5.77768e-05
-4.75835e-05
-4.92207e-05
3.90266e-05
-2.2924e-06
-9.85634e-07
3.27804e-06
-2.14798e-07
3.44164e-06
-3.22745e-06
-1.75853e-05
1.17842e-05
1.79226e-05
-1.21224e-05
-1.64027e-06
-1.37378e-05
2.54837e-06
1.28294e-05
1.70704e-05
-1.49805e-05
5.97047e-06
-8.06132e-06
-3.93569e-06
-2.7517e-05
-2.59938e-05
5.7446e-05
-1.83477e-05
5.63244e-06
3.49745e-05
-2.22594e-05
-1.60281e-06
-1.43392e-06
3.03668e-06
4.31459e-06
1.69494e-06
-3.90387e-06
-2.10578e-06
1.84048e-06
5.08051e-06
2.30956e-06
-9.2315e-06
2.60268e-06
-4.08647e-07
1.37338e-06
-3.56794e-06
1.1479e-06
-7.82232e-07
-1.98639e-06
1.6202e-06
2.38439e-05
-2.56146e-05
3.7739e-06
-2.00385e-06
-2.36198e-06
6.44251e-06
3.35914e-06
-7.43989e-06
1.96538e-05
-1.94912e-05
-1.63101e-07
2.3375e-05
8.06907e-06
-7.60072e-06
-2.3089e-05
4.8697e-05
-3.58277e-05
1.02186e-05
7.78024e-08
-3.92459e-08
-3.85647e-08
-1.0712e-07
5.20145e-08
5.5084e-08
-1.32878e-07
4.04665e-07
-5.7642e-07
3.04589e-07
3.34686e-06
-7.19078e-07
-2.52076e-06
-1.0704e-07
5.54376e-06
1.62876e-05
-1.36767e-05
-8.15518e-06
6.96782e-06
-1.00792e-05
-3.08416e-07
3.41943e-06
1.46879e-08
-1.13339e-06
4.12981e-08
1.07737e-06
-8.75067e-06
9.77149e-07
7.773e-06
6.61887e-08
1.56635e-08
-8.18573e-08
7.02386e-06
1.78996e-05
-1.81563e-05
-6.76813e-06
7.38902e-06
-1.13698e-06
-1.93755e-06
-2.92747e-05
2.54436e-05
-2.1784e-05
-9.78769e-06
2.53377e-06
3.84708e-05
-3.12175e-05
4.30043e-07
2.36479e-06
-3.60404e-06
8.09141e-07
6.29877e-06
-4.88751e-06
-3.07266e-06
1.66142e-06
4.21628e-05
4.94895e-06
-4.03307e-05
-6.78205e-06
2.92173e-05
3.24042e-06
-1.36545e-06
-3.10924e-05
2.88909e-06
-3.64202e-06
7.5241e-07
1.29801e-06
-2.21385e-06
7.85407e-07
1.30331e-07
1.36502e-06
9.53065e-07
6.74252e-07
-2.99236e-06
6.3883e-06
-6.1476e-06
8.72607e-06
-8.96743e-06
-5.04282e-06
-2.55784e-05
3.61708e-06
2.70036e-05
-4.053e-06
1.68298e-06
-1.02525e-06
3.3952e-06
2.36675e-06
-5.0797e-06
-7.34498e-06
1.00579e-05
-3.98915e-06
3.2677e-06
3.55648e-07
3.65726e-07
2.17491e-06
-7.96694e-06
3.24993e-06
2.54146e-06
4.08583e-05
2.95042e-05
-1.56761e-05
-5.46881e-05
-9.98062e-08
-2.58326e-06
-8.61433e-08
2.7692e-06
1.33749e-05
-7.79868e-08
-1.07912e-05
-2.50651e-06
-2.22508e-06
-4.61585e-07
3.62206e-07
2.32443e-06
2.54089e-06
-2.59995e-06
-4.07771e-08
7.24836e-07
-9.55368e-07
-8.13804e-06
8.36848e-06
-7.37128e-06
1.1261e-06
1.30564e-05
-6.81144e-06
8.083e-07
1.86572e-06
-1.93846e-06
-7.36072e-07
-9.27256e-08
-2.46205e-07
1.03571e-07
2.35384e-07
-5.53783e-06
4.04106e-06
-9.1591e-07
2.41233e-06
5.62355e-06
-5.03493e-06
6.91915e-07
-1.28057e-06
-1.44235e-06
-2.97925e-08
-1.12003e-06
2.59224e-06
5.81433e-07
2.65342e-07
1.97885e-06
-2.8257e-06
9.86846e-08
-2.58954e-06
2.49083e-06
1.17937e-07
-1.63256e-07
-4.74056e-08
2.4653e-06
2.09576e-07
-2.57623e-06
9.66875e-08
3.17044e-06
-2.016e-06
-1.25156e-06
-1.01346e-06
-1.62197e-07
1.17564e-06
-1.09567e-05
4.936e-06
3.28821e-06
2.73241e-06
3.98008e-07
-2.27521e-06
2.24422e-06
-3.67075e-07
-4.02121e-05
1.12859e-05
-5.57142e-06
3.4497e-05
-5.47149e-07
-7.30944e-06
1.1867e-05
-4.01084e-06
-1.6351e-05
-4.72781e-05
7.90323e-05
-8.18766e-06
-2.42766e-06
-3.41494e-07
7.91845e-07
1.0343e-05
-4.18933e-06
-6.94511e-06
-3.26847e-07
3.56015e-07
-3.03962e-06
3.01053e-06
-2.86165e-05
2.84144e-05
-1.0127e-05
1.03282e-05
-5.19974e-06
5.58698e-06
3.93931e-06
-4.32654e-06
1.68011e-07
-5.00821e-08
3.11437e-07
-3.38191e-07
2.34697e-07
-2.07931e-07
-4.74046e-07
-4.09575e-06
2.37085e-06
2.19879e-06
1.90955e-05
-5.81578e-06
1.5358e-06
-1.48161e-05
-4.91141e-07
1.74362e-06
-1.25252e-06
-1.41521e-06
2.53302e-07
1.16146e-06
-2.69182e-06
-1.39498e-06
2.8445e-07
3.80229e-06
3.14152e-07
1.18902e-06
-1.21996e-06
-2.83246e-07
4.72077e-08
2.0085e-06
1.36964e-07
-2.19313e-06
-4.6887e-06
-1.10701e-06
8.50913e-07
4.94418e-06
-6.9788e-05
-1.62534e-05
-7.62673e-06
9.36673e-05
-1.71594e-06
5.68682e-06
-3.34283e-06
-6.28131e-07
-4.07747e-07
-1.02744e-05
7.36239e-06
3.31949e-06
-2.1331e-07
5.77261e-08
-7.54028e-07
9.09607e-07
-3.25228e-06
-1.0393e-06
4.29138e-06
-6.59347e-07
2.82677e-06
-2.65865e-06
1.01753e-06
2.39403e-06
7.2948e-10
-3.41232e-06
1.35005e-06
-1.37406e-06
-7.71427e-07
7.95402e-07
3.30912e-07
-4.49772e-08
-2.85969e-07
-2.05755e-06
5.65382e-06
-3.45727e-06
-1.39488e-07
-1.64027e-07
9.61822e-07
4.11895e-07
-1.20969e-06
2.51529e-06
-6.80415e-06
3.55212e-06
7.36225e-07
-1.8062e-06
5.29903e-06
-5.86275e-07
-2.90656e-06
-1.92628e-06
-5.85479e-07
2.01845e-06
4.93261e-07
-5.23816e-07
5.22146e-07
-4.71897e-07
1.90214e-06
-1.56309e-06
5.89246e-08
1.47437e-06
5.42475e-07
-2.05148e-06
3.45807e-08
-1.15799e-06
3.25579e-06
-1.95722e-07
-5.71214e-06
-2.97664e-05
3.56403e-05
-1.61992e-07
-6.86324e-06
1.02426e-05
-1.05422e-05
7.16237e-06
4.4691e-06
4.89411e-07
-5.28669e-06
3.27645e-07
-3.80372e-06
-2.89809e-06
3.5879e-06
3.11397e-06
8.65855e-07
9.37706e-07
-3.26628e-06
1.46267e-06
-1.64641e-06
-1.25278e-07
1.77161e-06
-0.000156276
4.95932e-05
6.87796e-05
3.79023e-05
1.19807e-06
-2.24162e-06
1.64918e-06
-6.06117e-07
6.35938e-06
1.71185e-05
-2.17666e-05
-1.71199e-06
4.35484e-06
-6.05681e-06
-2.60977e-05
2.77986e-05
-1.2484e-07
5.35913e-07
-1.30636e-07
-2.80448e-07
1.29016e-06
-1.35194e-05
4.95098e-06
7.2779e-06
5.00908e-06
-1.82865e-06
1.53533e-06
-4.71583e-06
1.15997e-06
-3.47474e-06
-1.87168e-06
4.18642e-06
4.65967e-06
4.74013e-06
-1.05014e-05
3.88551e-06
2.19529e-05
-1.94796e-05
4.68587e-07
-4.16333e-08
-5.51804e-07
4.93826e-06
-1.55497e-06
-2.15156e-06
-1.23227e-06
-6.89962e-06
7.93413e-06
1.49803e-06
-2.5329e-06
-4.77744e-06
-2.35468e-05
3.22088e-05
1.22397e-05
-3.25367e-07
-3.09311e-06
-8.82248e-06
-1.929e-06
1.60901e-06
-1.3265e-06
-5.5541e-07
3.18315e-07
-1.29219e-06
1.52886e-06
-1.24954e-06
3.55413e-06
-3.21412e-06
9.08971e-07
-7.30211e-07
3.51711e-07
7.49636e-07
-3.71154e-07
-9.4484e-06
8.96003e-06
-1.01369e-05
1.06244e-05
-7.1119e-06
-4.85272e-06
-4.37031e-06
1.63344e-05
5.64094e-07
-6.497e-07
-7.46356e-07
8.31929e-07
1.8714e-05
-5.23935e-06
1.4963e-05
-2.84383e-05
4.42526e-07
1.77921e-06
-1.65767e-06
-3.23138e-06
-3.10921e-06
1.58674e-06
4.75381e-06
-2.14954e-06
2.0224e-06
-8.45152e-06
8.57823e-06
1.19281e-05
-2.3277e-05
-9.52461e-07
1.23009e-05
-9.76731e-07
-4.89165e-07
1.46588e-06
-3.28039e-06
-8.23315e-07
4.5462e-06
1.97124e-06
-2.78843e-06
1.2745e-05
-6.19233e-07
3.86202e-06
-1.97615e-05
1.65182e-05
3.73752e-06
-1.68911e-07
-3.5687e-06
-9.22848e-06
-3.59983e-06
2.21954e-06
1.06083e-05
7.27525e-05
-7.76583e-05
-4.04803e-06
8.95317e-06
1.6045e-06
5.04967e-07
-1.6525e-06
-4.57002e-07
1.02222e-06
5.8778e-07
-1.61005e-06
-9.38549e-06
8.964e-06
4.213e-07
-0.000284134
0.000105417
0.000151294
2.74233e-05
-8.57383e-06
5.25991e-06
-1.70136e-06
5.01521e-06
-1.79838e-07
-2.98043e-07
4.77854e-07
-1.21159e-05
-1.85368e-06
1.40451e-05
-7.57935e-08
1.20341e-05
1.28391e-06
-6.491e-06
-6.82752e-06
-4.92302e-05
-0.000112845
0.000108017
5.40574e-05
-1.96736e-05
-4.32654e-05
-4.94185e-05
0.000112357
9.43087e-06
4.98254e-05
-4.12169e-05
-1.80403e-05
1.2738e-05
1.72554e-06
-1.4464e-05
1.00602e-07
-2.09729e-05
2.08567e-05
1.50063e-08
-9.69919e-07
2.23188e-05
-2.03951e-05
-9.54333e-07
1.51292e-05
-1.79046e-05
-6.53782e-07
3.42884e-06
-3.13102e-06
-4.53147e-06
7.34723e-06
3.15079e-07
-6.24903e-06
7.08691e-06
5.49396e-06
-6.33263e-06
-3.0903e-06
1.19142e-06
1.25507e-06
-4.15208e-06
1.31119e-06
-1.87767e-06
4.7179e-06
-9.07708e-06
6.46969e-07
8.42995e-06
-2.1102e-06
1.33977e-05
2.90361e-06
-1.41916e-05
-1.07423e-06
-1.33266e-05
9.75593e-06
4.64464e-06
5.01183e-07
2.37642e-06
-7.14481e-07
8.68904e-06
-1.27907e-05
1.68392e-05
-9.26148e-06
1.78045e-05
3.68416e-05
-4.53857e-05
1.42571e-05
7.97388e-06
-2.97378e-05
7.50645e-06
2.7872e-06
-2.37638e-06
2.71976e-06
-3.13061e-06
7.53894e-06
5.73763e-06
-1.32768e-05
1.46216e-05
9.00709e-05
-9.85633e-05
-6.13034e-06
-5.93474e-05
1.33942e-05
4.17454e-05
4.2072e-06
2.33633e-05
1.38641e-05
-2.33706e-05
-1.38576e-05
5.73751e-06
-1.04736e-05
-2.87533e-06
7.61107e-06
1.08722e-06
-4.5516e-06
3.23026e-06
2.34004e-07
4.707e-06
-3.50817e-05
-5.56357e-06
3.59375e-05
-1.08669e-05
8.77439e-05
-0.000172902
9.60245e-05
-3.20692e-06
7.30845e-06
-5.84061e-06
1.73906e-06
3.31214e-05
-3.75659e-06
-2.55917e-05
1.06028e-05
-2.20268e-05
5.54436e-06
5.87938e-06
-4.85026e-06
1.40085e-06
3.3801e-07
3.11136e-06
2.81045e-05
-0.000300356
7.35607e-05
0.000198689
2.17932e-06
2.26547e-06
-1.00988e-05
5.65338e-06
-3.20293e-05
-3.03045e-06
3.02418e-05
4.81714e-06
-9.97907e-06
3.03723e-05
-8.73055e-05
6.69134e-05
4.10424e-07
-4.24767e-07
-4.0109e-07
4.15403e-07
-3.3375e-06
-2.7467e-05
3.06403e-05
1.63408e-07
-2.16216e-06
-2.45384e-06
1.37541e-07
4.47839e-06
-1.76175e-06
-1.77104e-06
-1.92765e-07
3.72545e-06
-6.21547e-07
3.97928e-06
-4.45739e-06
1.09977e-06
3.54966e-06
-1.01529e-06
-3.15595e-06
-2.92821e-06
-1.6338e-07
-9.98038e-07
4.08959e-06
5.26017e-07
1.36567e-06
8.77747e-07
-2.76949e-06
1.90009e-06
-4.15093e-06
-1.80147e-06
4.05219e-06
9.76647e-06
-4.79514e-06
-7.71196e-06
2.74013e-06
-6.49973e-07
6.83749e-07
-3.38408e-08
-2.9527e-05
2.09504e-05
-1.09025e-05
1.94784e-05
-2.89481e-06
-2.20647e-06
1.48673e-05
-2.41834e-06
1.43575e-06
1.50847e-06
1.28837e-06
-2.20434e-06
-4.30364e-07
1.34625e-06
-1.419e-06
4.99143e-06
3.67776e-06
8.24529e-06
-1.10918e-05
-1.94892e-06
-2.87649e-06
2.46187e-06
-2.08032e-06
2.49439e-06
-1.07231e-06
8.00221e-06
-6.93031e-06
-1.0581e-05
1.61837e-05
9.66004e-06
-1.52637e-05
-1.90387e-06
-5.71129e-07
2.29269e-06
1.82242e-07
-3.23587e-06
-1.08903e-06
-1.89777e-07
4.51401e-06
-9.3447e-07
-3.62392e-06
-6.86566e-06
1.14235e-05
4.09425e-07
3.76596e-07
-7.86055e-07
2.87289e-06
-3.12449e-06
2.51478e-07
-8.29505e-07
-2.58111e-07
1.08756e-06
1.6235e-06
1.27189e-06
-2.8957e-06
1.76168e-06
-7.08836e-06
-9.68461e-07
6.29426e-06
-1.27963e-05
2.13842e-06
-2.46832e-06
1.31253e-05
1.33684e-05
2.95965e-06
-3.27053e-05
1.63768e-05
-2.43199e-06
-3.5342e-06
1.90823e-06
4.05777e-06
-4.22329e-06
9.57353e-06
1.50965e-06
1.41702e-05
-1.76502e-05
1.96944e-06
-1.28179e-05
-6.57293e-06
3.30966e-05
-1.37062e-05
-6.78406e-07
-2.88643e-06
8.29603e-07
2.73521e-06
1.23844e-06
5.35461e-07
-4.47108e-07
-1.32685e-06
2.91151e-07
3.24931e-07
-6.16123e-07
-2.47169e-06
8.55151e-06
-6.26095e-06
1.80327e-07
-1.17968e-07
-1.7348e-06
3.05011e-06
-5.43836e-07
3.41637e-06
-0.000150124
-3.54315e-05
0.000185474
-3.26953e-06
-4.37293e-06
6.67662e-06
9.65734e-07
3.39343e-06
-4.11715e-06
-1.5127e-06
2.23636e-06
1.69236e-06
2.96581e-06
-1.75505e-06
-2.9031e-06
4.17314e-06
-6.81345e-06
3.19198e-06
-5.52416e-07
3.33464e-05
-0.000246621
0.000362878
-0.000149594
1.58485e-05
-1.57483e-05
-6.15512e-07
-4.12138e-06
3.21108e-07
4.41566e-06
1.95782e-07
4.07558e-06
-1.52203e-07
-4.11915e-06
1.00425e-06
7.48857e-07
3.45936e-06
-5.21251e-06
-4.18482e-06
2.72339e-06
-1.33775e-07
1.59455e-06
-0.000151602
-0.000236744
0.000146979
0.000241367
4.79089e-06
-7.07197e-06
-2.60134e-06
4.88233e-06
4.28704e-06
7.99279e-08
-3.87422e-07
1.41739e-05
1.06672e-06
-2.20277e-05
6.78631e-06
-1.89921e-06
-7.31659e-07
3.0814e-06
-4.50548e-07
1.28212e-06
6.28994e-07
-1.34426e-06
-5.66893e-07
4.90132e-06
-4.33794e-06
-3.67683e-07
5.48124e-06
-9.73192e-07
-4.77824e-06
2.70143e-07
-1.92777e-06
2.71633e-06
2.11288e-06
-2.90149e-06
2.28821e-06
1.06128e-06
-6.75293e-06
3.40258e-06
4.07694e-06
-1.45279e-09
-2.98229e-07
1.74049e-06
9.41583e-07
-2.38388e-06
5.27044e-06
-7.87785e-06
7.89084e-06
-5.28349e-06
-1.15406e-05
-4.94626e-07
-7.83154e-07
1.28177e-05
-1.46308e-06
6.81506e-07
-2.45862e-06
3.23977e-06
-3.19663e-05
2.93205e-06
1.26372e-05
1.6396e-05
2.0266e-05
2.39637e-05
-1.22862e-05
-3.19446e-05
4.56503e-07
-2.23383e-07
-1.23006e-06
9.95948e-07
-9.54368e-06
8.9826e-06
8.64561e-07
-3.03735e-07
1.01421e-07
8.38434e-07
-9.39908e-07
4.61234e-06
-1.18707e-06
1.4759e-06
-4.10546e-07
2.56885e-06
-3.95852e-06
1.79948e-06
2.16481e-07
1.29967e-07
-3.46486e-07
-5.21313e-06
-1.31111e-06
4.74625e-06
1.77786e-06
4.85817e-07
-1.80393e-06
-1.35448e-07
1.45319e-06
-1.19338e-06
-2.09382e-06
1.12499e-06
3.40702e-06
-5.05481e-06
-2.72865e-05
2.89335e-05
-3.36451e-07
-1.53334e-06
2.98517e-05
2.08168e-06
-1.55898e-05
-1.63438e-05
-9.88143e-05
7.68153e-06
4.50312e-05
4.61006e-05
-1.44058e-06
-1.20409e-07
2.04645e-06
5.31031e-06
-2.15741e-06
-2.30605e-06
-8.46944e-07
-3.01195e-06
5.2602e-07
-8.56775e-06
1.10534e-05
-1.32203e-05
2.29052e-05
1.4937e-05
-2.46229e-05
6.5968e-06
6.70871e-06
-1.23896e-05
-9.1676e-07
3.21993e-06
-7.39049e-07
-2.48099e-06
1.63037e-06
-3.20877e-06
8.66093e-06
-7.08289e-06
1.82204e-06
-1.73151e-06
-1.35518e-06
1.26424e-06
1.27413e-06
-1.79202e-07
-9.28263e-07
-1.67012e-07
6.92518e-07
2.27495e-06
1.36945e-06
-9.55935e-08
4.23038e-06
-6.57494e-07
-1.2514e-05
8.94058e-06
1.46466e-05
-1.13942e-05
-4.7973e-06
1.5442e-06
-9.23269e-06
-9.50657e-06
1.51377e-05
3.60145e-06
2.33291e-06
1.38151e-05
1.98369e-06
-1.81323e-05
2.12924e-05
-1.06548e-05
-1.38401e-05
3.20205e-06
9.5844e-06
3.21136e-06
2.24475e-06
-1.50411e-05
4.49331e-06
1.74929e-07
6.24828e-07
-5.29317e-06
2.56088e-05
2.68231e-06
-3.57705e-06
-2.47146e-05
-3.1294e-06
-1.71475e-05
-9.85072e-07
2.12615e-05
-7.14066e-08
2.61465e-06
-4.02254e-06
-3.06979e-08
1.43852e-06
-1.81407e-05
2.36749e-06
-2.01814e-05
3.5954e-05
-8.38457e-06
5.55417e-06
5.61406e-06
-2.78398e-06
4.35083e-05
-6.872e-05
7.07015e-06
3.8835e-06
6.79342e-07
2.49541e-07
-4.8129e-06
-1.82472e-06
1.65637e-06
-1.22135e-06
1.38964e-06
1.38404e-06
2.01982e-06
-5.63233e-06
2.22836e-06
1.77538e-05
-2.17955e-05
8.92135e-07
3.14913e-06
6.76791e-05
9.60441e-05
-6.408e-05
-9.96449e-05
5.99e-07
-7.30086e-07
1.36304e-06
-1.23201e-06
1.79314e-07
-3.48826e-07
-1.66846e-07
3.36315e-07
-4.56673e-06
1.99695e-05
-7.20671e-06
-8.19672e-06
6.53933e-06
-4.65609e-06
-1.55901e-06
-3.24281e-07
-1.97424e-06
-1.36874e-06
-2.36433e-07