/*--------------------------------*- C++ -*----------------------------------*\
| =========                 |                                                 |
| \\      /  F ield         | OpenFOAM: The Open Source CFD Toolbox           |
|  \\    /   O peration     | Version:  v2012                                 |
|   \\  /    A nd           | Website:  www.openfoam.com                      |
|    \\/     M anipulation  |                                                 |
\*---------------------------------------------------------------------------*/
FoamFile
{
    version     2.0;
    format      ascii;
    class       volScalarField;
    location    "0.5";
    object      Qdot;
}
// * * * * * * * * * * * * * * * * * * * * * * * * * * * * * * * * * * * * * //

dimensions      [1 -1 -3 0 0 0 0];


internalField   nonuniform List<scalar> 
108993
(
2.37289e-191
0
1.19468e-86
4.31614e-95
7.93869e-124
0
0
5.0681e-169
1.99162e-35
0
3.17443e-116
4.57027e-108
0
0
1.79279e-191
8.89072e-172
0
0
0
0
6.40006e-160
6.98594e-57
0
0
2.26022e-104
0
0
0
0
0
3.142e-10
0
5.5879e-21
0
3.64061e-87
0
0
6.25922e-117
0
0
0
0
0
0
1.47819e-243
0
1.92391e-18
0
0
0
0
0
0
0
2.03125e-233
6.72725e-159
0
1.18752e-105
7.10546e-84
0
0
0
0
0
0
0
0
9.98454e-103
0
0
0
0
2.63575e-113
7.64875e-106
0
3.35322e-10
0
2.80552e-209
0
2.86589e-110
5.17183e-111
8.78596e-197
8.85264e-66
1.24731e-97
0
1.60298e-169
0
0
8.3809e-116
0
0
1.35736e-10
3.5233e-110
4.02568e-129
2.53464e-111
1.87985e-158
6.86052e-13
6.56747e-93
6.56796e-11
6.68168e-13
3.0938e-108
0
3.35248e-161
0
0
9.80089e-109
1.32139e-118
0
0
0
0
4.16016e-106
0
0
9.48224e-58
0
0
1.2856e-82
0
0
0
3.07537e-67
0
3.25014e-85
0
2.8207e-173
0
2.07541e-119
1.93098e-64
7.9164e-67
0
0
0
0
0
0
0
0
0
4.35602e-179
2.9094e-79
6.06394e-05
1.87644e-218
5.97982e-65
5.71853e-64
1.58556e-115
0
0
7.0908e-83
0
0
0
0
0
3.4224e-68
0
1.81877e-143
0
0
0
0
1.46219e-34
0.0104153
0
0
0
4.44952e-130
0
0
7.65112e-71
0
2.33154e-154
6.44185e-294
0
0
0
0
0
5.84738e-62
0
0
4.37475e-65
0
3.45463e-85
5.67818e-166
0
1.5391e-56
0
0
3.87145e-89
0
4.81508e-43
0
0
0
2.23398e-97
0
0
0
3.63088e-83
5.90212e-125
0
0
0
0
0
0
0
0
0
0
6.46165e-114
0
0
0
1.26582e-105
2.53857e-174
0
5.36457e-42
9.00061e-27
0
0
0
0
0
0
0
0
1.89405e-283
0
0
0
0
0
0
1.52247e-27
0
0
0
5.86394e-39
2.3495e-06
0
5.55879e-148
6.03826e-43
5.97512e-48
0
0
0
0
0
161837
0
0
1.76721e-71
1.37928e-50
0
0
0
0
0
0
0
3.72763e-168
4.21722e-179
0
0
6.33772e-27
0
0
0
5.1133e-138
1.55824e-68
0
0
0
0
1.59299e-08
0
0
0
0
0
0
0
2.62314e-51
0
8.48416e-104
0
5.14459e-116
0
0
7.83721e-19
0
9.03109e-19
0
0
2.21835e-14
0
0
1.53521e-145
0
0
0
1.70164e-145
0
0
0
0
0
0
0
0
0
5.97729e-135
0
0
0
0
0
0
0
0
0
0
3.29502e-105
0
0
0
1.68935e-26
1.68933e-102
0
0
0
0
0
0
6.50731e-42
0
0
5.76333e-47
0
0
0
0
0
0
9.8209e-50
0
0
2.98247e-59
2.93714e-26
0
0
0
0
3.84809e-100
0
0
5.19315e-108
0
0
0
3.49898e-47
0
0
0
0
3.77611e-48
0
0
0
7.73958e-147
2.62463e-50
0
0
0
1.42096e-138
0
0
1.11018e-95
0
0
0
1.43862e-179
3.25621e-207
0
0
0
0
0
0
0
0
0
0
0
0
0
1.58975e-182
0
0
0
0
1.34633e-35
0
0
0
0
0
0
6.4007e-214
0
0
0
0
0
0
0
0
0
0
0
0
0
2.87699e-121
0
0
0
0
5.54294e-143
0
0
0
1.50853e-62
0
1.72077e-230
0
0
0
0
2.11308e-178
2.11908e-47
1.33411e-68
0
0
0
0
0
0
0
0
3.02869e-118
0
2.8253e-152
0
0
1.33901e-176
0
0
0
0
0
0
0
0
0
0
0
0
7.76676e-75
0
1.52322e-121
3.08382e-29
0
0
4.26032e-196
0.0341277
0
0
0
0
0
0
0
7.75357e-114
0
0
2.88224e-69
0
0
0
1.51692e-137
1.61625e-184
0
3.73314e-185
0
1.27914e-112
0
0
0
1.74346e-76
0
0
0
3.96544e-244
0
0
0
0
0
9.67633e-152
0
0
0
0
0
0
7.49057e-46
0
0
0
0
0
0
0
0
0
7.61853e-55
0
0
0
7.47829e-136
0
2.86697e-197
0
4.97207e-51
0
1.14458e-150
4.35444e-203
0
0
0
0
2.10592e-117
5.96516e-90
0
0
0
6.47331e-81
0
0
0
0
0
0
0
0
0
0
0
6.783e-156
0
0
0
0
0
0
0
0
0
0
0
0
0
0
0
0
0
0
0
0
0
1.09004e-71
2.10459e-79
1.51569e-154
0
0
0
8.90144e-160
0
0
4.19238e-165
0
0
0
0
0
2.99277e-167
0
1.37953e-216
3.36315e-60
0
0
0
0
0
0
4.99949e-173
9.11191e-165
0
0
3.57069e-103
0
7.10062e-92
0
2.79916e-60
0
2.67982e-170
0
0
0
0
0
0
0
0
0
0
0
0
0
0
0
0
3.30275e-143
0
0
0
1.68376e-200
0
5.83961e-254
0
0
0
0
4.30052e-148
1.1689e-143
0
0
0
0
0
0
0
0
0
9.7655e-211
0
0
0
0
0
1.31516e-169
2.87239e-24
0
0
0
0
0
0
0
0
0
0
0
0
0
0
0
0
0
0
5.70329e-218
9.41312e-149
0
0
1.38529e-286
0
0
0
8.78866e-43
6.76146e-70
0
0
0
0
0
0
0
0
0
0
0
0
0
0
1.05014e-235
0
0
0
0
0
0
0
0
1.75161e-114
0
1.90982e-199
7.02742e-143
0
0
2.05215e-143
0
0
0
0
0
0
0
0
0
8.05941e-144
0
0
0
1.58342e-140
0
0
1.8687e-71
0
0
2.49689e-160
0
0
0
0
2.28014e-140
1.77013e-138
1.0487e-145
9.99306e-192
1.03886e-145
0
0
0
0
0
0
0
1.26324e-184
0
0
0
0
3.18286e-117
0
0
0
0
0
2.01665e-51
2.70486e-117
0
0
0
0
0
4.00548e-120
0
0
1.1308e-183
1.95315e-56
2.07596e-205
3.81957e-121
0
0
0
0
2.02714e-162
0
0
0
0
4.4785e-18
0
0
0
0
0
0
1.15783e-136
0
2.65153e-179
5.10543e-104
0
4.66542e-168
2.23922e-13
0
0
0
0
4.31714e-98
0
0
0
0
9.09785e-222
0
0
0
0
0
0
0
0
0
0
0
1.25194e-243
0
0
0
0
0
0
0
0
7.54477e-107
0
0
2.36419e-110
1.81772e-165
0
0
0
0
0
0
0
0
1.26437e-112
0
1.54677e-124
0
0
0
0
0
0
0
0
0
0
0
0
0
0
0
0
0
0
0
9.08481e-57
3.08331e-187
0
2.75165e-48
0
1.96455e-271
0
0
0
0
0
0
2.53987e-291
0
1.49622e-242
0
0
0
0
1.35975e-82
0
1.55577e-180
0
0
0
0
2.07564e-195
0
6.57603e-105
0
0
0
3.82318e-240
0
7.18159e-156
1.38262e-294
0
0
0
8.52385e-160
3.78065e-191
0
0
0
0
0
7.01947e-200
0
0
1.25514e-185
6.87235e-149
0
0
0
0
0
0
0
0
0
0
2.24047e-290
4.5682e-210
0
1.06659e-175
1.03239e-62
0
8.7182e-163
0
0
0
0
0
0
0
0
0
0
0
0
1.95608e-171
0
0
0
8.39198e-226
0
7.62659e-179
0
2.22319e-171
0
0
0
0
5.25983e-201
5.03147e-189
0
0
0
0
1.12442e-197
0
0
3.61602e-15
0
3.2823e-201
8.58136
0
0
1.645e-203
0
1.02978e-73
2.0675e-107
0
0
7.16679e-105
0
0
4.74214e-115
1.67995e-123
6.7163e-225
0
0
1.73422e-75
0
0
0
0
0
0
0
3.16467e-113
3.03061e-123
0
0
0
0
0
0
3.1788e-144
0
1.24096e-212
0
0
0
3.04854e-116
0
0
0
0
0
0
0
0
0
0
0
0
0
1.07301e-290
0
0
0
0
0
0
2.10465e-104
5.66152e-42
0
0
4.04224e-152
0
0
0
6.57246e-152
0
0
0
0
0
0
0
0
0
0
0
4.10858e-145
2.87049e-138
0
0
0
0
0
4.42143e-143
0
0
2.06166e-101
0
0
2.08294e-191
0
1.29237e-211
0
3.54364e-286
0
0
0
0
0
2.07227e-109
2.00521e-172
0
0
0
9.70648e-178
0
0
1.93893e-283
0
0
1.08046e-177
7.83084e-114
8.66848e-183
0
0
0
1.43829e-192
0
0
0
1.99704e-98
3.90947e-100
0
3.5789e-78
0
0
0
2.97174e-101
1.99067e-103
0
0
9.10684e-169
0
1.66022e-183
2.57105e-121
4.01296e-111
0
0
0
0
0
0
0
3.6023e-116
1.09541e-185
1.53987e-109
0
0
0
0
0
0
0
3.89008e-127
1.02382e-258
7.30082e-101
0
4.0434e-81
0
2.20925e-303
1.24387e-154
0
0
0
4.2472e-98
0
0
0
7.53083e-123
0
2.76192e-29
0
0
1.7109e-25
0
0.497186
0
0
0
0
0
1.18786e-194
0
0
0
0
0
0
0
7.99131e-183
0
0
0
0
0
0
0
0
0
0
0
2.31881e-209
0
0
6.92453e-218
0
0
0
0
0
0
1.08709e-101
0
0
1.40461e-213
1.06392e-28
0
6.20335e-215
0
1.99116e-08
0
0
0
1.45295e-301
1.58309e-221
0
1.93152e-87
0
0
0
0
0
0
3.91588e-224
0
0
2.79261e-227
0
0
2.32683e-73
2.17916e-149
2.02335e-191
0
4.22959e-179
0
6.99406e-53
8.39043e-176
1.01629e-106
0
0
6.13505e-19
0
0
0
0
0
0
3.51707e-153
0
2.97192e-146
0
2.20801e-109
0
0
0
0
0
0
0
0
0
0
0
0
2.80593e-257
0
0
0
0
0
2.17277e-189
9.33533e-135
0
0
0
0
0
0
0
0
0
0
0
0
5.08133e-135
0
1.72129e-29
0
0
0
0
2.65182e-234
0
7.93273e-108
0
0
0
0
0
0
0
0
0
0
0
0
0
0
0
0
0
0
6.32271e-140
0
0
0
0
0
1.7693e-263
0
0
7.15705e-281
9.15059e-156
6.89772e-19
0
2.42734e-58
3.66206e-162
0
0
0
0
1.51021e-166
0
0
3.25702e-153
0
0
0
0
5.56543e-34
0
0
0
1.23582e-166
0
0
0
5.59769e-175
0
0
0
4.50733e-191
9.967e-132
6.5524e-165
4.52071e-162
0
0
0
8.68764e-22
0
1.09261e-203
0
0
0
0
0
2.6649e-208
0
0
0
0
0
0
0
1.42791e-80
0
1.42083e-132
4.45191e-201
0
4.2623e-196
0
0
0
0
3.37441e-196
0
0
3.0252e-100
0
0
9.9433e-196
5.20782e-89
1.90213e-209
0
0
0
8.94181e-212
9.91163e-222
0
2.51729e-265
0
0
8.78802e-263
3.89558e-08
1.56883e-262
0
0
0
0
0
0
0
0
0
5.72981e-260
0
0
1.66603e-222
9.81184e-190
0
1.35889e-218
0
6.00117e-296
0
0
0
0
0
0
0
0
1.5213e-269
0
0
1.52819e-220
0
2.35762e-138
2.96555e-293
3.76819e-70
0
0
328103
0
0
3207.49
0
0
0
0
0
0
0
0
0
0
0
0
2.65112e-267
0
0
0
0
0
3.88467e-139
0
8.81307e-46
0
1.37833e-142
0
0
0
0
0
0
4.56151e-190
0
6.93139e-142
4.9028e-117
0
0
0
0
0
0
0
0
0
0
0
0
0
0
0
0
0
0
9.88095e-198
0
0
0
0
0
0
3.3656e-149
0
2.73239e-41
0
0
0
1.16643e-106
1.14751e-191
5.54906e-228
0
0
0
0
0
0
0
0
0
0
0
0
0
0
0
0
0
0
0
0
0
0
0
0
0
0
0
0
0
0
0
0
0
0
0
0
0
0
0
0
2.83166e-143
0
0
7.36152e-46
0
0
6.5925e-166
0
2.34663e-175
6.43588e-170
0
0
0
0
0
0
0
0
0
0
0
9.32176e-177
8.82271e-171
0
0
0
0
1.46721e-167
0
0
0
6.55221e-254
0
6.90224e-209
0
0
2.40503e-165
0
0
0
0
0
0
0
0
1.63048e-301
0
0
0
0
0
0
0
0
2.48256e-172
0
0
0
0
0
0
0
1.5009e-119
0
0
0
0
0
0
0
0
0
0
0
0
0
0
0
1.87465e-104
0
0
3.21476e-185
0
9.05692e-49
0
0
0
0
0
0
0
0
0
0
0
0
1.46869e-217
2.28984e-228
0
0
0
0
0
0
0
0
0
0
0
0
0
0
0
0
0
0
7.00003e-210
0
0
0
0
0
0
1.03375e-195
0
0
0
0
5.13919e-287
0
0
0
0
0
0
0
2.68955e-271
0
0
5.16845e-282
0
0
0
0
0
0
0
5.15438e-166
0
1.8736e-193
0
0
0
6.04158e-191
1.01141e-293
0
0
6.68318e-125
0
0
0
0
0
0
5.13425e-69
0
0
0
1.58344e-263
0
0
0
0
0
0
0
1.52801e-262
0
0
0
1.80352e-55
0
0
0
0
0
0
0
1.03492e-126
0
0
0
0
4.49985e-46
9.82794e-277
0
0
0
0
6.78743e-239
4.02423e-260
1.66661e-276
1.85579e-242
0
0
4.37948e-103
1.51341e-238
0
9.12417e-64
0
0
0
0
0
0
0
0
0
0
1.08764e-97
0
0
0
0
0
2.80622e-37
0
4.70726e-154
9.43912e-88
1.47621e-156
1.40226e-156
0
0
0
0
0
7.93047e-89
0
3.66817e-159
0
0
0
0
0
0
0
0
0
0
0
0
0
0
0
0
0
0
0
0
0
0
0
0
0
0
0
0
0
0
0
0
0
0
0
0
0
0
0
0
0
0
0
0
1.00976e-145
0
0
8.07202e-122
0
0
0
0
0
0
0
4.65142e-145
0
0
0
0
0
0
0
1.74675e-09
1.5472e-93
0
0
0
0
0
0
0
0
0
0
0
0
0
0
1.6797e-75
1.01507e-277
0
0
0
0
0
0
0
0
7.57473e-143
0
0
0
0
0
0
0
0
0
1.92168e-143
0
0
0
0
0
0
0
7.32101e-298
0
0
0
1.73986e-212
0
0
1.40277e-212
0
0
0
0
0
4.81131e-160
0
0
0
0
0
0
0
0
0
0
1.12193e-184
0
0
0
0
0
4.83475e-171
0
0
0
0
2.9017e-52
0
0
0
0
0
0
0
0
0
0
0
0
0
5.64738e-247
0
0
0
0
5.78879e-214
0
0
0
0
0
0
0
0
0
0
0
0
0
0
0
0
0
0
0
0
0
0
0
7.21399e-158
0
0
2.87701e-73
0
0
0
4.72887e-294
0
0
0
0
0
0
0
0
0
0
0
0
3.66739e-299
0
0
1.73609e-291
1.27235e-157
0
0
0
0
1.58088e-297
0
0
0
0
8.71456e-133
2.87739e-296
5.01878e-155
0
0
0
0
0
9.47337e-146
1.82399e-152
0
0
0
0
0
0
0
0
0
0
0
3.1337e-141
0
0
0
0
6.58768e-265
0
0
0
4.85087e-161
0
0
0
0
4.2423e-114
4.22652e-240
0
0
1.0549e-260
0
0
0
0
0
2.45361e-190
0
2.5047e-116
0
0
0
0
0
0
0
2.15523e-232
0
0
0
0
0
0
0
0
1.30654e-284
0
0
0
0
0
0
0
0
0
0
0
0
1.96248e-170
1.77501e-175
3.38174e-294
0
0
0
0
0
0
0
2.13432e-251
0
0
0
0
0
0
0
0
0
2.95094e-176
0
0
0
0
0
0
0
4.44155e-174
0
0
0
0
5.1828e-123
0
0
2.12359e-51
5.93083e-126
0
0
0
0
1.0241e-297
0
0
0
2.15099e-123
0
0
0
0
0
0
0
0
0
4.99018e-75
0
0
6.72183e-137
0
0
0
0
4.22351e-229
1.15574e-195
0
0
0
0
0
0
0
0
0
5.57299e-224
0
0
0
0
0
0
0
0
0
0
0
0
0
5.05726e-176
0
2.63535e-145
0
0
3.03436e-202
0
0
0
1.81571e-174
0
0
0
0
4.61401e-221
1.19995e-199
6.24425e-140
6.62236e-121
1.27221e-176
0
0
0
1.14353e-212
2.32068e-87
4.35454e-87
0
0
0
1.355e-79
0
3.03281e-185
1.18452e-51
0
0
0
1.33949e-138
7.29599e-133
1.92728e-123
2.63053e-75
0
0
0
0
1.34446e-181
4.15178e-287
2.90987e-30
0
1.95464e-259
1.80144e-186
0
0
0
0
1.32114e-110
0
0
0
5.6434e-108
0
0
0
4.2358e-80
1.95498e-148
7.66917e-83
0
0
0
0
2.55173e-274
0
0
3.35645e-216
0
0
0
0
0
0
0
0
0
4.216e-105
3.71456e-79
4.85306e-116
0
0
8.35331e-113
0
2.10267e-197
0
0
5.28522e-29
1.64929e-26
0
0
0
0
0
0
0
0
0
0
0
0
2.53432e-78
0
0
1.76382e-75
6.20726e-74
0
0
0
0
2.6389e-210
0
0
0
0
0
0
2.9083e-170
0
0
0
0
0
1.94102e-148
0
0
1.3007e-175
3.36158e-183
0
0
0
0
0
0
0
0
0
0
0
0
0
0
3.12096e-193
0
0
0
0
0
0
0
1.92991e-247
0
0
0
0
0
0
0
2.49112e-236
0
0
1.49612e-20
0
0
0
3.25543e-174
0
4.93413e-05
8.39999e-07
6.93571e-167
1.35541e-05
0
0
1.92132e-279
0
0
0
0
0
6.58636e-138
7.51848e-148
0
0
1.011e-184
2.84627e-245
0
0
0
0
0
0
0
0
1.01384e-281
1.28914e-306
8.07566e-289
0
0
0
0
0
0
0
0
6.45587e-175
0
0
9.38828e-163
0
0
1.1347e-207
0
2.49094e-225
0
0
0
0
0
0
2.95148e-300
0
0
5.56063e-129
0
0
0
0
2.87191e-174
0
0
1.40586e-227
0
0
0
0
0
0
0
0
0
0
1.4852e-311
2.09603e-109
0
5.04291e-178
0
0
0
0
0
0
0
1.17614e-157
0
1.27522e-91
0
8.02017e-176
0
0
0
0
0
5.0415e-176
0
2.14423e-258
0
2.33749e-189
0
0
0
0
0
0
0
0
0
0
0
0
0
0
0
0
0
0
1.21597e-175
0
0
0
3.81752e-134
4.92735e-104
0
0
0
0
3.66779e-267
0
0
0
0
1.39495e-61
0
0
0
9.35875e-130
0
0
0
0
0
0
0
0
0
0
0
0
0
0
0
0
0
0
0
3.95292e-307
0
0
0
0
0
0
0
0
0
4.57909e-144
0
7.50328e-135
1.01228e-298
0
0
0
0
0
0
0
0
0
0
0
0
0
0
0
0
0
0
0
0
0
0
0
0
0
0
0
9.18601e-148
0
0
0
0
0
0
0
0
2.46665e-106
0
0
0
0
0
0
0
2.56943e-229
0
1.47288e-121
0
0
0
4.96039e-138
0
0
6.26461e-251
0
0
1.54623e-205
1.99548e-222
0
0
0
0
0
0
0
0
0
0
0
0
0
0
4.02709e-144
1.14046e-61
0
0
4.60456e-204
0
0
0
0
0
0
0
0
0
0
0
0
0
0
0
0
0
0
0
0
0
0
0
0
0
0
0
0
0
0
0
6.69183e-263
0
8.53297e-254
0
0
0
0
0
0
0
0
3.37981e-171
0
0
0
1.53644e-151
2.88685e-169
0
0
6.77943e-155
0
0
0
0
0
4.40307e-142
2.58649e-240
0
0
1.9802e-81
0
0
0
4.22952e-133
0
0
0
0
0
0
0
0
4.71931e-50
0
2.15384e-47
0
0
0
0
0
0
0
0
0
0
0
0
5.96462e-228
0
0
3.22218e-45
1.66338e-54
0
1.39777e-64
0
0
0
0
0
0
0
0
0
0
0
0
0
0
0
0
0
0
1.49396e-70
0
0
0
0
6.25556e-135
0
0
0
0
0
0
0
0
0
0
0
0
0
0
0
0
0
0
8.87325e-203
0
0
0
0
2.57233e-139
0
0
0
0
0
0
0
0
0
0
3.09953e-159
0
0
0
0
0
0
0
0
0
0
0
0
0
1.04015e-123
1.25124e-111
0
0
0
0
0
0
0
0
0
0
0
0
7.45867e-219
0
0
0
0
0
0
0
0
0
0
0
0
0
0
0
0
0
0
0
0
0
0
0
6.31063e-149
0
0
0
0
0
0
3.80541e-262
0
0
0
0
0
0
0
0
0
0
0
0
0
0
2.07282e-135
0
0
0
0
0
0
0
0
4.86301e-94
0
0
0
0
0
0
8.79701e-87
0
6.05489e-156
0
0
0
0
0
0
0
0
0
0
1.44186e-151
0
0
0
0
0
0
0
0
1.08953e-166
5.09803e-58
0
3.87362e-217
8.31794e-60
0
0
0
0
0
0
0
0
0
0
0
0
6.32679e-37
1.85398e-07
0
0
0
0
0
2.91374e-90
0
9.48404e-88
4.62274e-180
0
1.5162e-267
0
0
0
0
0
0
0
0
4.0286e-45
0
0
2.75496e-92
0
8.96228e-146
0
3.25531e-142
0
0
0
0
2.2915e-184
1.49615e-96
0
0
0
0
2.68057e-58
0
0
0
0
2.07005e-55
3.39682e-117
7.03538e-101
4.9209e-115
0
0
0
0
0
0
0
0
0
0
0
8.78201e-213
0
0
0
0
0
0
0
1.74851e-123
3.0111e-63
0
0
0
0
0
0
1.86115e-58
1.00513e-95
0
0
0
0
0
0
0
0
0
0
0
0
4.05836e-119
0
0
0
0
0
0
0
0
0
0
0
0
0
0
0
9.16571e-111
0
0
0
0
0
0
0
3.54766e-306
8.62806e-287
0
0
0
0
0
0
0
0
0
0
0
0
0
0
0
0
0
0
0
0
0
0
0
0
0
0
0
1.01293e-191
0
3.66395e-56
0
0
6.98676e-168
0
0
0
1.54471e-48
2.15552e-51
1.86429e-210
0
0
0
0
0
0
0
0
0
0
0
1.63022e-177
0
0
0
0
0
0
2.2561e-228
0
0
0
4.15915e-55
0
0
0
0
0
0
0
0
0
0
0
0
0
0
0
0
0
0
0
1.17139e-103
0
0
1.78675e-180
0
0
0
0
0
0
0
0
0
0
0
0
0
0
0
0
0
1.09248e-298
0
0
0
0
0
4.33219e-36
0
0
0
0
0
0
0
0
0
0
0
0
0
7.55439e-32
0
0
0
0
0
0
0
0
0
0
0
0
0
0
0
0
0
0
0
0
0
0
0
7.22632e-164
0
0
0
0
1.88848e-67
0
0
0
0
0
0
0
0
0
0
0
0
0
0
3.17337e-52
0
0
0
0
0
0
0
0
0
0
0
0
0
0
0
0
7.0506e-173
0
0
0
0
0
2.23712e-136
0
0
0
0
7.81857e-114
0
2.6593e-111
0
0
0
0
0
0
6.15368e-126
9.50881e-124
0
0
0
0
0
0
1.39057e-121
0
0
0
0
0
0
0
0
0
0
0
0
0
0
0
0
0
1.32464e-249
0
0
0
0
6.22945e-247
3.41953e-76
0
0
0
2.59285e-249
0
0
1.26122e-246
0
0
0
0
0
0
9.41058e-288
0
0
0
0
0
2.15558e-44
0
0
0
0
1.47571e-53
0
0
0
0
0
0
0
0
0
0
0
0
0
0
0
0
0
2.95906e-42
0
0
0
0
0
0
0
0
0
0
8.88958e-40
0
8.14477e-131
0
3.12604e-133
0
0
0
3.69337e-235
0
0
0
0
1.52166e-237
0
0
0
7.47601e-293
0
0
0
0
1.11787e-308
0
8.48437e-292
0
3.03254e-226
0
0
0
0
0
0
6.62611e-238
0
0
0
0
0
0
0
0
0
0
0
0
0
0
0
0
0
0
0
0
0
0
0
0
0
0
0
0
0
0
0
0
0
0
0
0
0
0
0
0
0
0
0
0
0
0
0
0
0
0
0
0
0
0
0
0
0
0
0
0
0
0
0
1.92635e-257
0
0
0
0
0
0
0
0
0
0
0
0
0
0
0
0
0
0
0
0
0
0
0
0
0
8.89515e-292
0
0
0
0
0
0
0
0
0
0
0
0
0
1.24458e-225
0
0
0
0
0
0
0
0
0
0
0
0
0
0
3.77555e-20
0
0
0
0
0
0
0
0
0
0
0
0
0
0
0
0
0
0
0
0
0
0
0
0
0
0
0
0
0
0
0
0
0
0
0
0
0
0
3.14327e-276
0
0
0
0
0
0
0
0
0
0
0
0
0
0
0
0
0
0
0
0
0
0
0
0
0
0
1.1146e-299
0
0
0
0
0
0
0
0
0
0
0
0
0
3.11274e-108
2.6534e-57
0
0
0
0
0
0
2.64032e-126
0
0
3.09225e-106
0
0
2.1261e-100
0
0
0
0
0
0
0
1.29874e-98
0
0
0
0
3.69758e-106
0
0
0
0
0
0
0
0
0
0
0
0
0
0
0
0
0
0
1.21398e-120
0
0
0
0
0
0
1.57709e-218
0
0
0
2.62091e-243
0
4.63738e-06
0
0
0
0
1.18071e-135
0
0
0
0
0
0
0
0
0
0
0
0
0
0
8.81423e-283
0
1.15394e-287
0
0
5.03594e-289
1.1577e-286
0
0
0
0
0
3.96886e-89
0
0
6.44629e-287
0
3.61682e-284
0
1.79043e-121
0
0
1.65305e-299
0
0
0
1.02047e-32
0
0
0
0
0
0
0
0
0
0
0
0
0
0
0
0
4.55871e-214
0
0
0
0
0
0
0
0
0
0
0
0
0
0
0
0
0
0
0
0
7.68503e-194
0
0
0
0
0
0
0
0
0
0
0
0
0
0
0
0
0
0
0
0
0
0
0
0
0
0
1.8034e-239
0
0
0
0
0
0
0
0
0
0
0
0
0
0
0
0
0
0
0
0
0
0
0
0
7.39561e-214
1.5329e-225
0
0
0
0
0
0
0
0
0
0
0
1.17834e-127
0
0
0
0
0
0
0
0
0
0
0
0
3.56576e-257
0
3.25534e-254
0
0
0
0
0
0
0
3.25709e-299
0
1.39017e-287
4.80863e-88
0
0
0
0
0
0
0
0
0
0
0
0
0
0
0
0
0
0
0
0
0
0
0
0
0
0
5.82786e-128
0
0
0
0
0
0
0
0
0
0
3.44977e-291
0
0
0
0
0
0
0
0
0
0
3.16019e-299
0
0
0
0
5.01518e-238
1.5944e-288
0
0
0
0
0
0
0
0
0
0
0
0
6.25938e-281
0
0
0
0
0
0
0
0
0
0
0
0
0
0
3.60542e-125
0
0
0
0
0
0
0
0
3.30193e-143
0
2.45084e-222
0
0
0
0
7.41943e-228
0
0
2.77666e-265
4.9549e-266
2.56652e-143
4.39878e-281
1.63235e-278
0
0
0
0
1.0295e-275
0
0
0
0
0
0
3.18405e-301
0
3.29987e-131
0
0
0
2.28703e-221
0
0
0
0
0
0
0
0
0
0
0
0
9.02854e-219
0
0
0
0
0
0
0
0
0
0
0
0
0
0
0
0
0
0
0
2.07522e-235
0
0
2.0566e-313
0
0
0
0
0
0
0
0
0
0
0
5.60991e-74
5.50963e-36
0
0
2.17182e-121
3.47742e-101
6.221e-233
0
0
0
0
0
6.9044e-225
0
0
0
0
0
4.40211e-112
0
1.21493e-145
2.15614e-132
0
0
0
0
2.80196e-104
0
3.12227e-185
2.06963e-171
7.92322e-166
0
3.8444e-171
0
0
4.3572e-120
0
0
6.96342e-195
0
7.24077e-225
0
0
0
0
0
0
6.47946e-157
0
2.6752e-153
0
1.48432e-208
0
0
0
3.51156e-202
1.08199e-246
0
0
0
6.88177e-202
0
0
0
0
2.79903e-197
0
0
0
0
0
0
0
1.10094e-188
0
0
0
0
0
6.36166e-63
0
0
0
1.11594e-108
0
0.0584352
4.14084e-52
1.2169e-129
5.32528e-190
1.97211e-51
0
0
0
0
0
0
0
0
0
0
0
0
6.36681e-169
0
0
0
0
1.45858e-161
0
7.60193e-135
3.24348e-160
1.01256e-164
4.29364e-55
0
0
0
0
0
0
0
2.96141e-84
0
1.11572e-147
0
0
0
5.49488e-299
0
1.32971e-215
0
0
1.20558e-188
1.7306e-143
0
0
0
9.28708e-161
9.57016e-140
3.59645e-119
1.2749e-120
0
3.43104e-205
0
0
0
0
3.16437e-177
6.71283e-203
0
4.67758e-229
0
3.94466e-188
0
0
0
4.94282e-188
0
1.08367e-175
1.42955e-166
1.59879e-209
2.28158e-275
0
0
0
0
0
0
6.89107e-189
0
4.61139e-70
0
0
0
0
0
0
2.41353e-57
1.24884e-26
0
3.27714e-200
3.93932e-241
3.77219e-191
0
3.20253e-264
0
5.58332e-45
0
1.88233e-64
0
3.05381e-211
0
0
0
0
0
0
1.59597e-105
3.79777e-171
2.38283e-190
6.9816e-203
0
3.19509e-172
0
0
0
0
0
2.10995e-83
6.06125e-216
0
0
8.84396e-126
0
0
0
0
0
4.71089e-123
0
9.77286e-279
7.45942e-37
0
0
0
5.37755e-166
7.00082e-178
0
1.82936e-104
1.03344e-147
0
0
0
0
0
0
0
0
0
3.79922e-181
0
0
0
1.14661e-155
7.85383e-177
0
0
0
7.12347e-161
0
0
0
0
0
0
0
1.80007e-19
0
0
0
0
0
0
0
0
9.13292e-153
0
0
0
0
0
0
0
0
1.54537e-90
7.78533e-92
0
0
0
0
0
0
0
0
0
4.37716e-219
0
0
0
0
0
0
0
4.3679e-108
0
0
8.84331e-247
0
2.52577e-112
0
0
0
0
0
0
0
0
0
0
5.38089e-147
0
0
0
1.4798e-131
0
2.91909e-141
1.11807e-174
0
0
0
0
0
0
2.299e-235
0
0
2.99261e-221
4.4485e-146
0
0
0
3.19582e-211
1.95042e-173
2.75552e-115
4.0999e-87
3.10754e-47
0
0
0
0
2.06556e-191
2.46692e-106
2.36116e-89
0
1.09244e-146
0
0
0
6.34429e-124
0
0
0
0
0
0
1.11597e-115
0
0
0
0
0
0
8.00938e-303
8.75593e-168
0
0
0
0
0
2.65947e-163
1.509e-218
0
1.0766e-217
0
0
8.56777e-130
0
0
0
0
0
0
0
2.03717e-44
0
0
0
4.52648e-05
0
2.30609e-116
0
5.63405e-48
0
3.6117e-62
2.31545e-64
1.85101e-59
0
0
0
3.91744e-72
0
5.48963e-150
0
0
1.33563e-176
0
0
5.55548e-137
1.84386e-128
1.98809e-157
0
0
0
9.95811e-121
0
1.53411e-133
6.88185e-117
0
1.82569e-137
0
0
0
0
2.13919e-52
0
0
1.3498e-267
2.99526e-83
0
4.68259e-265
3.99871e-122
1.57098e-103
3.5094e-07
0
0
0
6.87884e-150
3.68647e-118
2.16918e-228
1.10505e-137
0
0
0
1.28709e-134
0
0
1.19515e-14
5.29842e-137
5.62971e-311
4.95529e-32
0
1.26565e-262
1.16854e-25
0
6.96205e-130
0
0
3.93878e-79
6.51586e-69
0
0
1.05892e-174
0
0
2.15696e-126
0
0
0
2.72705e-153
0
3.00764e-222
0
0
0
6.837e-106
0
0
0
0
1.6741e-105
3.08744e-235
1.4465e-103
5.98417e-126
0
0
0
0
0
0
0
0
0
0
3.92511e-45
0
0
0
2.92386e-235
0
0
0
0
0
0
0
1.13104e-100
0
0
3.34538e-77
0
0
8.19826e-118
3.74383e-84
0
1.70189e-172
0
5.46102e-97
0
0
0
8.53574e-160
0
0
1.67869e-94
6.2982e-144
2.37993e-118
0
8.59947e-141
3.64168e-112
0
0
0
4.74306e-103
0
0
0
0
0
0
0
0
0
0
2.66142e-94
0
0
3.22253e-88
3.88156e-99
0
0
0
6.04586e-155
0
0
0
8.00753e-38
0
0
4.9166e-155
1.01128e-63
0
0
0
0
0
0
1.2756e-46
0
0
4.46684e-56
0
0
0
0
0
0
4.54637e-139
0
0
3.97041e-150
0
0
0
0
0
0
0
0
0
0
0
0
0
0
0
4.81923e-50
2.13474e-16
0
1.08546e-117
6.23981e-36
0
0
1.25875e-126
0
0
0
0
0
0
4.03394e-136
0
0
0
1.26596e-256
3.11414e-121
0
0
0
0
0
0
0
0
0
0
0
1.11836e-145
0
4.06744e-106
0
0
0
0
0
2.43373e-40
0
0
0
1422.74
0
0
0
0
1.83886e-146
0
0
2.01985e-90
0
0
0
0
0
0
0
0
0
5.84882e-95
0
0
0
0
0
5.53742e-39
0
0
0
0
0
0
0
1.30723e-152
0
0
0
0
1.85205e-94
0
7.29328e-98
0
1.01251e-193
1.56864e-198
0
0
7.79118e-57
0
0
2.32857e-107
1.65792e-281
0
0
0
0
0
0
0
0
0
0
0
0
0
0
5.01313e-49
6.6169e-41
0
0
0
0
4.52096e-101
0
0
7.5197e-100
2.97225e-53
0
7.99221e-62
236167
0
0
2.42904e-43
0
0
0
0
0
0
8.33184e-27
0
0
0
0
0
3.13076e-154
0
0
0
0
0
0
0
0
0
0
0
3.16733e-118
0
7.99929e-71
1.82493e-80
0
0
0
0
0
2.9572e-31
0
2.10029e-60
0
7.0841e-29
0
1.162e-212
0
1.54495e-109
0
2.15788e-55
0
0
0
0
0
0
5.81213e-45
0
1.1131e-298
0
0
9.44417e-182
2.2079e-53
0
6.76174e-59
3.36701e-31
1.76511e-46
0
0
0
0
0
0
0
0
0
1.64954e-28
0
0
1.21316e-54
0
3.15071e-71
0
0
0
0
0
2.53933e-92
9.49106e-08
0
0
0
0
0
0
0
2.38631e-295
1.13585e-60
0
0
0
0
0
6.96455e-31
4.19148e-129
2.25273e-92
0
1.08209e-26
1.2421e-156
0
1.76187e-86
0
0
0
2.51431e-59
0
0
0
8.86771e-239
1.76073e-241
1.71117e-119
0
1.94099e-14
2.31898e-32
0
0
0
2.16011e-104
5.02648e-45
1.22633e-78
3.29527e-65
2.45236e-289
1.0959e-290
2.92104e-297
0
0
0
0
1.03644e-103
0
4.5223e-55
0
0
0
0
0
0
1.13451e-11
0
7.32321e-21
0
0
7.11015e-241
0
0
0
4.85116e-14
6.61099e-90
1.53983e-311
0
0
0
0
0
0
1.21627e-182
2.20636e-18
0
0
0
0
0
3.37179e-117
3.75897e-87
0
0
0
0
0
0
0
0
0
0
0
3.33253e-154
0
0
0
0
8.72156e-205
0
9.66499e-89
0
0
0
3.63008e-128
0
3.51046e-126
2.25601e-149
0
0
0
0
0
0
1.06789e-249
0
2.48708e-247
0
3.54158e-221
2.62641e-83
0
1.99826e-220
0
1.71878e-274
0
0
0
2.10301e-139
2.33565e-257
0
0
0
0
0
0
0
0
0
0
0
2.3183e-180
0
0
9.85639e-101
6.30998e-90
8.73737e-232
0
0
0
4.76104e-273
0
0
3.75385e-199
0
0
2.2142e-77
0
6.25048e-80
0
0
0
1.76748e-270
0
1.67828e-205
1.75897e-298
0
0
0
7.22837e-235
6.24295e-299
0
2.9061e-156
0
5.86288e-197
0
0
0
0
0
0
0
0
0
0
0
0
0
0
8.61921e-60
0
0
7.87083e-197
0
0
0
0
0
0
0
0
0
0
0
0
0
5.76159e-164
9.17714e-113
0
1.55703e-145
2.48959e-137
0
8.19112e-175
1.14385e-65
0
0
0
0
0
0
0
2.62444e-171
0
0
0
6.75246e-71
0
0
0
1.20095e-256
1.03069e-126
0
0
0
0
0
0
0
0
0
0
0
0
0
0
0
0
0
1.0898e-158
0
0
0
0
0
0
5.43826e-108
0
0
0
0
0
0
0
0
0
0
0
0
0
0
0
0
0
0
0
3.20075e-117
0
0
3.95517e-221
0
0
0
2.68694e-245
0
0
0
0
0
0
2.27416e-136
0
0
3.00985e-132
0
1.39653e-74
0
0
0
0
0
0
0
0
0
8.00578e-106
0
0
0
0
0
0
0
0
1.34223e-12
0
0
1.93909e-43
0
0
6.33783e-28
0
3.42729e-37
0
0
0
1.07489e-52
3.74308e-46
0
0
0
0
0
0
0
0
0
1.8824e-103
0
0
0
0
1.98506e-196
0
0
0
0
0
0
0
8.0891e-72
1.65303e-65
0
0
1.77083e-61
2.98749e-33
0
0
2.92649e-145
1.60598e-296
0
0
0
0
5.5292e-96
4.56861e-182
0
0
0
0
0
0
8.35802e-280
0
0
0
0
0
3.02914e-283
5.25038e-297
0
1.53176e-294
0
0
8.9657e-122
0
0
0
0
0
0
0
0
0
4.61986e-90
0
0
0
0
0
0
0
0
0
0
0
1.73642e-68
0
0
2.03012e-51
0
0
0
0
0
0
0
0
0
0
0
1.51915e-109
0
0
0
0
1.91928
0
0
0
0
0
0
0
0
0
3.75855e-28
0
0
5.0151e-227
0
0
1.50165e-224
0
9.76653e-69
0
2.49395e-221
0
0
0
0
1.11795e-07
0
6.5738e-117
0
0
0
7.8856e-173
0
0
0
0
1.81408e-106
0
0
0
0
0
0
0
0
0
0
0
0
0
0
0
0
0
0
0
1.26398e-131
0
0
0
0
0
0
6.01226e-190
5.05364e-251
4.09352e-87
2.97777e-229
0
9.82032e-154
5.26341e-134
0
0
0
4.99999e-110
0
4.76935e-127
7.77858e-87
1.63254e-111
4.44051e-100
4.92378e-110
4.8696e-246
0
0
2.5739e-116
0
0
0
0
0
0
0
0
0
0
0
4.76528e-102
0
0
0
0
0
0
0
0
0
0
0
0
0
0
0
0
0
0
0
6.43189e-77
9.98713e-77
0
0
0
0
3.37878e-31
0
4.62619e-26
0
8.08206e-21
0
0
0
0
0
1.79065e-136
0
0
0
0
0
0
0
0
0
0
0
0
7.65599e-96
1.54465e-66
0
0
1.68403e-48
0
0
9.85523e-77
0
0
0
0
0
0
0
1.02542e-38
0
0
0
0
0
0
0
0
0
0
0
8.10938e-73
0
0
0
0
1.94728e-171
0
2.86618e-115
2.49972e-62
1.74816e-86
0
0
0
0
2.49898e-59
0
0
0
3.61331e-17
0
1.31217e-38
0
3.2416e-101
0
0
0
0
0
0
0
0
0
0
3.17915e-86
0
0
1.33092e-110
9.65615e-54
0
0
0
0
0
0
0
0
9.36616e-101
0
0
0
0
4.74774e-100
0
0
1.58988e-264
0
0
0
6.04256e-188
0
0
0
9.61264e-310
7.47835e-214
0
1.0047e-278
0
0
0
0
0
0
0
6.1875e-191
0
0
0
0
2.88841e-286
0
0
0
0
0
0
0
0
0
0
1.79678e-26
0
0
0
0
6.30573e-287
0
0
0
0
0
4.22822e-225
0
0
0
0
0
2.27098e-240
1.62613e-303
0
0
0
0
0
0
0
0
1.04554e-203
0
0
1.19832e-205
0
0
0
0
0
0
0
0
0
0
2.0604e-294
1.36368e-132
1.17182e-289
2.22103e-221
0
1.49568e-223
0
0
0
0
0
0
0
0
0
5.68416e-223
0
0
0
0
0
0
0
1.41718e-210
0
0
0
0
0
0
0
0
0
0
1.22721e-212
0
0
0
0
0
0
0
0
0
0
0
0
0
0
0
0
0
1.85419e-230
0
0
0
4.32024e-188
0
0
4.55111e-177
0
0
0
0
0
0
1.6585e-202
4.99599e-161
1.36721e-184
2.17134e-299
0
0
0
6.98195e-210
0
3.54861e-188
4.2174e-271
2.0549e-268
0
5.10698e-187
0
0
0
0
3.73497e-179
0
0
0
0
0
0
0
0
0
0
0
0
1.22805e-239
0
0
0
0
0
0
0
0
0
0
0
0
0
0
0
0
0
0
0
0
0
0
0
0
1.25147e-87
0
0
0
0
0
0
0
0
0
0
0
0
0
0
0
0
0
2.26992e-205
0
0
0
2.28273e-188
0
0
0
0
0
0
0
0
3.04141e-97
0
6.77964e-288
0
0
0
1.099e-297
0
0
2.65221e-199
3.28927e-192
0
0
0
8.0005e-119
0
0
0
0
0
0
0
9.90013e-243
1.34556e-288
0
0
0
0
0
0
0
0
1.98854e-200
1.6194e-260
0
0
0
0
0
0
2.55893e-226
0
0
0
0
3.14608e-289
0
0
0
0
0
0
0
0
0
0
7.02838e-249
0
0
0
7.38496e-304
0
0
0
0
2.09983e-267
0
0
0
0
0
0
0
0
0
0
0
0
0
1.01956e-228
0
0
0
0
0
0
0
0
0
0
0
0
0
0
0
0
4.53548e-283
0
1.6677e-61
0
0
0
0
0
0
0
1.47764e-308
3.25753e-291
0
0
0
0
0
0
0
0
0
0
0
0
0
0
0
8.70952e-271
0
0
0
0
0
1.40108e-186
2.64897e-293
3.35645e-262
0
0
0
1.86885e-268
0
0
0
0
0
0
0
0
0
5.71445e-271
0
2.69925e-214
0
0
0
0
0
0
1.29767e-298
0
1.7431e-294
0
0
0
0
0
0
0
0
0
0
0
0
0
0
0
0
2.35547e-256
0
0
4.68971e-297
0
0
0
0
0
0
0
0
0
0
0
0
0
0
0
0
1.48566e-201
6.9362e-290
6.16334e-257
0
0
0
0
0
0
0
0
9.94123e-301
0
0
0
0
0
0
0
0
0
0
0
0
0
0
0
0
0
2.51535e-308
0
0
0
0
0
0
0
0
0
0
0
2.52311e-195
1.22432e-304
0
0
0
0
0
0
0
0
0
0
0
0
0
2.54642e-202
0
0
0
0
0
0
0
0
0
0
0
0
0
0
0
0
0
0
3.48766e-311
0
0
5.75513e-210
0
0
0
0
0
5.33224e-155
0
0
0
3.09026e-120
0
0
4.87485e-186
0
0
0
4.02867e-298
0
0
0
5.79296e-239
5.64887e-275
0
0
0
4.17614e-255
0
0
0
0
7.66209e-268
3.71421e-222
7.79184e-269
0
0
0
0
0
0
0
0
0
0
0
0
0
5.53925e-200
0
0
0
0
0
0
0
0
0
0
0
5.64091e-141
0
0
0
0
0
0
3.13771e-71
0
0
0
0
0
0
0
0
0
0
5.96722e-214
0
0
2.94815e-179
9.393e-263
0
0
0
8.48133e-229
0
0
1.74587e-212
0
2.97602e-171
0
0
0
0
0
0
0
0
0
2.36147e-99
0
0
0
0
0
0
0
0
0
0
0
0
0
2.89616e-252
0
0
0
0
0
0
1.31346e-248
0
0
1.39158e-179
0
0
0
0
0
0
0
3.9146e-204
0
0
0
0
0
0
7.34611e-248
0
0
9.70023e-160
0
0
0
0
3.22e-198
1.58114e-231
0
9.06055e-203
8.30122e-165
0
0
0
2.34102e-301
0
0
0
0
0
0
0
0
0
0
0
0
1.02669e-174
0
1.03679e-226
2.90174e-181
1.68994e-124
0
0
0
0
6.76512e-181
0
1.54368e-157
0
1.01755e-18
0
2.3202e-96
7.97976e-15
5.77004e-162
7.1727e-285
0
0
0
3.23734e-206
0
0
4.29572e-207
0
0
0
0
0
0
0
1.44361e-256
0
0
0
6.26856e-252
0
4.86957e-224
0
0
0
0
0
0
0
0
0
0
0
1.4422e-280
0
0
0
0
0
0
0
0
0
0
0
9.19778e-258
0
0
0
1.88664e-266
0
0
0
0
0
0
0
0
0
0
0
0
0
0
0
0
0
0
0
0
3.77318e-289
0
0
0
0
0
0
0
0
0
0
0
0
0
0
0
0
0
0
0
0
0
0
0
0
0
0
0
0
0
0
0
0
0
0
0
0
0
0
0
0
0
6.50478e-272
0
0
0
0
2.97166e-170
0
0
3.99659e-277
0
5.17317e-277
0
1.63821e-202
0
0.0067096
0.0541227
2.3837e-145
0
0
0
2.32007e-261
0
0
0
0
0
0
1.82366e-96
0
1.20588e-143
0
0
0.287069
0
0.00179101
4.76281e-200
0
0
0
0
0
0
0
0
0.00378197
0
0
0
0
0
0
0
0
0
0
0
0
0
0
0
0
0.00675123
0
0
0
0
0
0
0
0
0
0
0.194956
0
0
0
0
0
0
0
0
0
0
0
0
0
0
0
1.17162e-09
0
0
0
0
4.2057e-43
0
0
0
0
6.3228e-157
0
2.72032e-150
0
0
8.12278e-76
7.86176e-88
0
1.69725e-85
0
0
0
0
0
5.40759e-84
0
1.11986e-167
0
2.07332e-81
0
8.81615e-65
0
0
0
0
0
0
0
0
9.6295e-160
0
0
0
3.04535e-79
0
0
0
0
0
0
0
0
0
0
0
0
0
0
0
0
0
0
0
0
1.26839e-85
4.11259e-163
0
4.10528e-81
0
0
0
0
0
0
0
0
0
0
4.55555e-06
3.85494e-141
0
0.00184692
0
9.35927e-08
0
0
0
0
9.77016e-07
0
4.31482e-164
0
1.88406e-175
0
0
1.18036e-217
0
0
0
0
8.52407e-196
4.35263e-265
0
0
0
0
0
2.49107e-207
0
8.28988e-158
0
0
0
0
0
9.23856e-208
3.95818e-204
0
0
0
5.84393e-202
4.78883e-205
7.88412e-284
0
0
0
0
0
0
0
0
0
0
0
4.12061e-182
0
0
6.75267e-185
0
0
0
0
0
0
0
1.23101e-115
0
0
1.72443e-134
0
0
3.62378e-102
0
0
0
0
0
0
0
0
0
0
0
0
0
0
0
0
0
3.03377e-185
0
0
1.88732e-176
0
0
0
0
0
0
0
0
0
0
7.81362e-09
0
5.33637e-39
0
0
0
0
0
0
0
0
0
0
0
0
0
0
0
0
0
0
0
0
0
0
0
0
1.88834e-92
0
6.41127e-180
1.50102e-173
4.94904e-173
1.82333e-98
2.56286e-66
0
0
5.84303e-41
2.63881e-61
0
0
2.67006e-170
0
0
6.62717e-231
0
0
0
0
0
0
0
0
0
0
0
1.57116e-199
0
0
4.11668e-302
0
0
0
0
0
1.28901e-196
0
0
0
0
0
0
0
7.06806e-269
0
0
0
1.90059e-82
0
0
7.07083e-148
1.72706e-307
0
0
0
0
0
0
0
0
0
0
0
0
0
0
0
0
0
0
0
0
0
0
0
0
0
0
9.97711e-298
0
0
0
0
0
0
0
0
0
0
0
0
0
0
9.372e-198
0
0
6.64531e-25
0
6.57725e-05
0
0
0
0
0
0
0
0
0
0
0
8.31485e-179
0
0
0
0
3.17846e-75
0
0
0
0
0
0
0
0
0
0
4.28573e-195
0
7.80968e-212
0
1.10046e-275
0
0
0
1.30767e-192
0
3.81954e-195
0
0
0
0
4.30809e-98
0
6.13481e-72
0
8.87539e-70
0
0
0
0
0
0
0
0
2.10402e-13
9.7177e-50
0
0
7.68116e-26
0
3.44115e-22
0
0
0
0
1.59379e-64
0
0
0
0
0
2.90971e-260
0
8.36687e-68
0
0
0
0
0
0
0
0
0
0
0
1.07289e-113
4.44974e-64
1.66605e-194
0
0
0
3.49873e-47
0
0
0
0
2.58107e-290
0
0
0
0
0
0
2.62931e-97
0
1.82047e-161
0
0
0
0
0
0
0
0
0
0
0
0
0
0
0
0
0
0
0
0
0
0
0
0
5.27089e-100
0
2.06309e-13
0
0
3.99962e-271
0
0
0
0
3.34043e-59
0
0
0
0
0
0
0
0
0
0
0
0
0
2.5223e-123
0
0
0
0
1.22829e-28
1.68603e-103
0
0
1.81368e-45
9.04249e-83
0
1.57389e-21
0
0
0
0
0
3.54396e-124
1.25346e-114
3.90592e-127
3.61531e-185
0
0
0
0
0
0
0
0
0
0
0
0
0
0
7.27169e-74
0
0
8.47541e-262
0
8.47102e-160
1.4539e-60
0
0
0
0
0
0
0
0
0
0
0
0
0
0
0
6.92689e-54
0
0
0
0
0
0
0
0
0
0
0
0
0
0
0
0
0
0
0
0
0
0
0
0
4.05342e-286
0
0
0
0
0
0
0
0
0
0
0
0
0
0
0
0
0
0
0
0
0
0
0
0
0
0
0
0
0
2.12938e-89
0
0
0
0
0
0
0
0
0
0
0
0
0
0
0
0
0
0
0
0
0
0
0
0
0
0
0
3.80157e-69
0
0
0
0
0
0
0
0
0
0
0
0
0
0
0
0
0
0
0
0
0
0
9.66898e-189
0
0
0
0
0
0
8.97335e-243
0
0
0
0
0
0
7.55852e-292
0
0
0
0
0
0
0
0